<?xml version="1.0"?>
<VTKFile type="UnstructuredGrid"  version="0.1"  >
<UnstructuredGrid>
<Piece  NumberOfPoints="2730" NumberOfCells="5218">
<Points>
<DataArray  type="Float64"  NumberOfComponents="3"  format="ascii">-0.5 -0.1 0  -0.25 -0.1 0  0.25 -0.1 0  0.5 -0.1 0  0.5 0.1 0  0.25 0.1 0  -0.25 0.1 0  -0.5 0.1 0  -0.49 -0.1 0  -0.48 -0.1 0  -0.47 -0.1 0  -0.4600000000000001 -0.1 0  -0.4500000000000001 -0.1 0  -0.4400000000000001 -0.1 0  -0.4300000000000002 -0.1 0  -0.4200000000000002 -0.1 0  -0.4100000000000002 -0.1 0  -0.4000000000000002 -0.1 0  -0.3900000000000002 -0.1 0  -0.3800000000000002 -0.1 0  -0.3700000000000001 -0.1 0  -0.3600000000000001 -0.1 0  -0.3500000000000001 -0.1 0  -0.3400000000000001 -0.1 0  -0.3300000000000001 -0.1 0  -0.3200000000000001 -0.1 0  -0.3100000000000001 -0.1 0  -0.3 -0.1 0  -0.29 -0.1 0  -0.28 -0.1 0  -0.27 -0.1 0  -0.26 -0.1 0  -0.2400000000000277 -0.1 0  -0.2300000000000555 -0.1 0  -0.2200000000000832 -0.1 0  -0.210000000000111 -0.1 0  -0.2000000000001387 -0.1 0  -0.1900000000001664 -0.1 0  -0.1800000000001942 -0.1 0  -0.1700000000002219 -0.1 0  -0.1600000000002497 -0.1 0  -0.1500000000002774 -0.1 0  -0.1400000000003052 -0.1 0  -0.1300000000003329 -0.1 0  -0.1200000000003606 -0.1 0  -0.1100000000003884 -0.1 0  -0.1000000000004161 -0.1 0  -0.09000000000044384 -0.1 0  -0.08000000000047156 -0.1 0  -0.0700000000004993 -0.1 0  -0.06000000000052705 -0.1 0  -0.0500000000005548 -0.1 0  -0.04000000000058251 -0.1 0  -0.03000000000061029 -0.1 0  -0.02000000000063804 -0.1 0  -0.01000000000066575 -0.1 0  -6.880607195114408e-13 -0.1 0  0.009999999999334319 -0.1 0  0.01999999999936203 -0.1 0  0.02999999999938974 -0.1 0  0.0399999999994175 -0.1 0  0.04999999999944521 -0.1 0  0.05999999999947297 -0.1 0  0.06999999999950068 -0.1 0  0.07999999999952839 -0.1 0  0.08999999999955621 -0.1 0  0.09999999999958392 -0.1 0  0.1099999999996117 -0.1 0  0.1199999999996394 -0.1 0  0.1299999999996671 -0.1 0  0.1399999999996949 -0.1 0  0.1499999999997226 -0.1 0  0.1599999999997503 -0.1 0  0.1699999999997781 -0.1 0  0.1799999999998058 -0.1 0  0.1899999999998335 -0.1 0  0.1999999999998613 -0.1 0  0.209999999999889 -0.1 0  0.2199999999999168 -0.1 0  0.2299999999999445 -0.1 0  0.2399999999999722 -0.1 0  0.26 -0.1 0  0.27 -0.1 0  0.28 -0.1 0  0.2899999999999999 -0.1 0  0.2999999999999999 -0.1 0  0.3099999999999999 -0.1 0  0.3199999999999998 -0.1 0  0.3299999999999998 -0.1 0  0.3399999999999998 -0.1 0  0.3499999999999998 -0.1 0  0.3599999999999998 -0.1 0  0.3699999999999998 -0.1 0  0.3799999999999999 -0.1 0  0.3899999999999999 -0.1 0  0.3999999999999999 -0.1 0  0.4099999999999999 -0.1 0  0.4199999999999999 -0.1 0  0.4299999999999999 -0.1 0  0.4399999999999999 -0.1 0  0.45 -0.1 0  0.46 -0.1 0  0.47 -0.1 0  0.48 -0.1 0  0.49 -0.1 0  0.5 -0.09000000000002303 0  0.5 -0.08000000000004391 0  0.5 -0.07000000000006369 0  0.5 -0.06000000000009215 0  0.5 -0.05000000000012061 0  0.5 -0.04000000000014908 0  0.5 -0.03000000000017754 0  0.5 -0.0200000000002114 0  0.5 -0.01000000000023986 0  0.5 -2.655931030659531e-13 0  0.5 0.00999999999975798 0  0.5 0.01999999999978645 0  0.5 0.02999999999981545 0  0.5 0.03999999999983792 0  0.5 0.04999999999986582 0  0.5 0.05999999999989369 0  0.5 0.06999999999991621 0  0.5 0.07999999999994523 0  0.5 0.08999999999997532 0  0.49 0.1 0  0.48 0.1 0  0.47 0.1 0  0.4600000000000001 0.1 0  0.4500000000000001 0.1 0  0.4400000000000001 0.1 0  0.4300000000000002 0.1 0  0.4200000000000002 0.1 0  0.4100000000000002 0.1 0  0.4000000000000002 0.1 0  0.3900000000000002 0.1 0  0.3800000000000002 0.1 0  0.3700000000000001 0.1 0  0.3600000000000001 0.1 0  0.3500000000000001 0.1 0  0.3400000000000001 0.1 0  0.3300000000000001 0.1 0  0.3200000000000001 0.1 0  0.3100000000000001 0.1 0  0.3 0.1 0  0.29 0.1 0  0.28 0.1 0  0.27 0.1 0  0.26 0.1 0  0.2400000000000277 0.1 0  0.2300000000000555 0.1 0  0.2200000000000832 0.1 0  0.210000000000111 0.1 0  0.2000000000001387 0.1 0  0.1900000000001664 0.1 0  0.1800000000001942 0.1 0  0.1700000000002219 0.1 0  0.1600000000002497 0.1 0  0.1500000000002774 0.1 0  0.1400000000003052 0.1 0  0.1300000000003329 0.1 0  0.1200000000003606 0.1 0  0.1100000000003884 0.1 0  0.1000000000004161 0.1 0  0.09000000000044384 0.1 0  0.08000000000047156 0.1 0  0.0700000000004993 0.1 0  0.06000000000052705 0.1 0  0.0500000000005548 0.1 0  0.04000000000058251 0.1 0  0.03000000000061029 0.1 0  0.02000000000063804 0.1 0  0.01000000000066575 0.1 0  6.880607195114408e-13 0.1 0  -0.009999999999334319 0.1 0  -0.01999999999936203 0.1 0  -0.02999999999938974 0.1 0  -0.0399999999994175 0.1 0  -0.04999999999944521 0.1 0  -0.05999999999947297 0.1 0  -0.06999999999950068 0.1 0  -0.07999999999952839 0.1 0  -0.08999999999955621 0.1 0  -0.09999999999958392 0.1 0  -0.1099999999996117 0.1 0  -0.1199999999996394 0.1 0  -0.1299999999996671 0.1 0  -0.1399999999996949 0.1 0  -0.1499999999997226 0.1 0  -0.1599999999997503 0.1 0  -0.1699999999997781 0.1 0  -0.1799999999998058 0.1 0  -0.1899999999998335 0.1 0  -0.1999999999998613 0.1 0  -0.209999999999889 0.1 0  -0.2199999999999168 0.1 0  -0.2299999999999445 0.1 0  -0.2399999999999722 0.1 0  -0.26 0.1 0  -0.27 0.1 0  -0.28 0.1 0  -0.2899999999999999 0.1 0  -0.2999999999999999 0.1 0  -0.3099999999999999 0.1 0  -0.3199999999999998 0.1 0  -0.3299999999999998 0.1 0  -0.3399999999999998 0.1 0  -0.3499999999999998 0.1 0  -0.3599999999999998 0.1 0  -0.3699999999999998 0.1 0  -0.3799999999999999 0.1 0  -0.3899999999999999 0.1 0  -0.3999999999999999 0.1 0  -0.4099999999999999 0.1 0  -0.4199999999999999 0.1 0  -0.4299999999999999 0.1 0  -0.4399999999999999 0.1 0  -0.45 0.1 0  -0.46 0.1 0  -0.47 0.1 0  -0.48 0.1 0  -0.49 0.1 0  -0.5 0.09000000000002303 0  -0.5 0.08000000000004391 0  -0.5 0.07000000000006369 0  -0.5 0.06000000000009215 0  -0.5 0.05000000000012061 0  -0.5 0.04000000000014908 0  -0.5 0.03000000000017754 0  -0.5 0.0200000000002114 0  -0.5 0.01000000000023986 0  -0.5 2.655931030659531e-13 0  -0.5 -0.00999999999975798 0  -0.5 -0.01999999999978645 0  -0.5 -0.02999999999981545 0  -0.5 -0.03999999999983792 0  -0.5 -0.04999999999986582 0  -0.5 -0.05999999999989369 0  -0.5 -0.06999999999991621 0  -0.5 -0.07999999999994523 0  -0.5 -0.08999999999997532 0  -0.25 0.09000000000002303 0  -0.25 0.08000000000004391 0  -0.25 0.07000000000006369 0  -0.25 0.06000000000009215 0  -0.25 0.05000000000012061 0  -0.25 0.04000000000014908 0  -0.25 0.03000000000017754 0  -0.25 0.0200000000002114 0  -0.25 0.01000000000023986 0  -0.25 2.655931030659531e-13 0  -0.25 -0.00999999999975798 0  -0.25 -0.01999999999978645 0  -0.25 -0.02999999999981545 0  -0.25 -0.03999999999983792 0  -0.25 -0.04999999999986582 0  -0.25 -0.05999999999989369 0  -0.25 -0.06999999999991621 0  -0.25 -0.07999999999994523 0  -0.25 -0.08999999999997532 0  0.25 0.09000000000002303 0  0.25 0.08000000000004391 0  0.25 0.07000000000006369 0  0.25 0.06000000000009215 0  0.25 0.05000000000012061 0  0.25 0.04000000000014908 0  0.25 0.03000000000017754 0  0.25 0.0200000000002114 0  0.25 0.01000000000023986 0  0.25 2.655931030659531e-13 0  0.25 -0.00999999999975798 0  0.25 -0.01999999999978645 0  0.25 -0.02999999999981545 0  0.25 -0.03999999999983792 0  0.25 -0.04999999999986582 0  0.25 -0.05999999999989369 0  0.25 -0.06999999999991621 0  0.25 -0.07999999999994523 0  0.25 -0.08999999999997532 0  -0.3850000000000003 -2.08166817117213e-17 0  -0.3217478072742469 0.03007626579408589 0  -0.3302092938139704 -0.03499011159768359 0  -0.4366935483871021 0.036693548387094 0  -0.4350297517421554 -0.03560429865713959 0  -0.3700323317384431 0.0494779391693463 0  -0.3778518540075231 -0.0496041553011964 0  -0.2949193640910946 -0.007649163120994062 0  -0.2930521137561938 -0.05694788624381432 0  -0.4583731736448897 -0.001215319834539247 0  -0.2913947207500996 0.05860527924989712 0  -0.4058579199933758 0.06268102441448029 0  -0.3459760841140711 -6.780346038333065e-06 0  -0.4646153994063984 0.06100234437856374 0  -0.4640054291352568 -0.06321884865692481 0  -0.3348335884184006 0.06363838236202049 0  -0.421356328333676 0.003541006712621568 0  -0.4120119114964419 -0.06356736075056821 0  -0.3471413390599406 -0.06535290311494767 0  -0.2845778682310051 0.02495476001244536 0  -0.4036347569859151 -0.02957578179079991 0  -0.4008038297516275 0.02912394953576058 0  -0.4684464750612591 0.03012383645431143 0  -0.4680517012023024 -0.03010903590294818 0  -0.3590097397730768 -0.02683727700402486 0  -0.433770700672056 0.07049211514509394 0  -0.3183899248882524 -0.07132030615315052 0  -0.2786322459778085 -0.03158677644556719 0  -0.3486837543859873 0.02771664936262214 0  -0.3821065399865956 0.07272535841062555 0  -0.4376032469332309 -0.07379314933767983 0  -0.3196320204582093 0.002595122969680506 0  -0.3880668591275516 -0.07396612294530693 0  -0.3742378196480034 0.02350060963641981 0  -0.3047151843601849 -0.03117523435393533 0  -0.3121330384030688 0.07485353556697853 0  -0.2752826937641819 -0.07336098674719331 0  -0.3571666671737028 0.07538621545144265 0  -0.2742213809778471 0.07514005730299225 0  -0.2747898059150209 0.00492397814091739 0  -0.437923130018529 -0.01418843422685659 0  -0.3134057994256593 0.04985811985167827 0  -0.2727715686081871 0.0454393012412595 0  -0.3816362970490225 -0.02274608622601491 0  -0.3648615044101529 -0.07875302035426339 0  -0.4408610826074181 0.01462565879120544 0  -0.4773683522588593 0.01085151015484962 0  -0.2982306820441021 -0.07828377112297646 0  -0.2722508120310425 -0.05134182107518803 0  -0.4781799624717576 0.07811710671504565 0  -0.4782710545244382 -0.07824050944143322 0  -0.4779740084229234 -0.0112266819954318 0  -0.3022133220633222 0.01962797382460943 0  -0.3162722290862882 -0.04972488152854707 0  -0.3909157978710001 0.04714581587945635 0  -0.4783356259668664 0.04772111364468869 0  -0.4787470645745416 -0.04866862524229203 0  -0.4180150985993636 0.03927071917149167 0  -0.4152578092014954 0.0804870785508901 0  -0.3489659630856133 -0.0456212538077103 0  -0.33112725123118 -0.0152079172306502 0  -0.3635240430342228 -0.00532618303806893
[...]
<PointData  Scalars="f_788-1"> 
<DataArray  type="Float64"  Name="f_788-1"  format="ascii">-8.7055073323841026e-01  -1.8661766494807990e+00  2.0829838226552400e+00  -8.7055073323841026e-01  -8.7055073323841026e-01  2.0829838226552400e+00  -1.8661766494807990e+00  -8.7055073323841026e-01  -9.9097374405648631e-01  -1.1071055340579432e+00  -1.2185800747120572e+00  -1.3248484634020206e+00  -1.4254708715586000e+00  -1.5201966252617742e+00  -1.6085123781609594e+00  -1.6901526030620657e+00  -1.7648345346936809e+00  -1.8320990360153993e+00  -1.8920197476690657e+00  -1.9440144853618813e+00  -1.9880423994185463e+00  -2.0240035304808019e+00  -2.0516559646571642e+00  -2.0709961969810959e+00  -2.0817929623982727e+00  -2.0841609872776758e+00  -2.0777803734154001e+00  -2.0631106110915995e+00  -2.0400456026910296e+00  -2.0087403062347184e+00  -1.9690555450531564e+00  -1.9214099874738155e+00  -1.8005773649697130e+00  -1.7273314954589485e+00  -1.6468635103523572e+00  -1.5587980745212378e+00  -1.4639126419017774e+00  -1.3624816812965730e+00  -1.2549351728608007e+00  -1.1419076473322098e+00  -1.0236893871849118e+00  -9.0077434776028797e-01  -7.7350212375790850e-01  -6.4260046804816573e-01  -5.0857640168091489e-01  -3.7197043272652575e-01  -2.3330608154239210e-01  -9.3104640960632312e-02  4.8019522768647939e-02  1.8947425289552297e-01  3.3071279823688188e-01  4.7112764575805843e-01  6.1021697797167096e-01  7.4733893519176631e-01  8.8193694430816671e-01  1.0135089066349157e+00  1.1414739643620240e+00  1.2654043195399212e+00  1.3846314205069199e+00  1.4989195293504936e+00  1.6076564195330427e+00  1.7103666730355578e+00  1.8066067616085701e+00  1.8959636573007783e+00  1.9783133118520111e+00  2.0531533152406674e+00  2.1201314119136816e+00  2.1790150320596529e+00  2.2295223565247650e+00  2.2715580120850247e+00  2.3048903976883044e+00  2.3293433597273339e+00  2.3449192603882070e+00  2.3513827378219707e+00  2.3488244626138246e+00  2.3373580034151709e+00  2.3167560842333805e+00  2.2871537982160652e+00  2.2489342339468283e+00  2.2013650245418361e+00  2.1466321395214436e+00  2.0146816249201618e+00  1.9393554855372097e+00  1.8572185679425630e+00  1.7682685987699147e+00  1.6729911152461732e+00  1.5717861249070981e+00  1.4649996408609103e+00  1.3531326855807655e+00  1.2365331659421828e+00  1.1156148667378285e+00  9.9091527559808545e-01  8.6288627297898524e-01  7.3207276320436088e-01  5.9890573331252717e-01  4.6387948545084451e-01  3.2759656784248448e-01  1.9055234037525567e-01  5.3259419249328130e-02  -8.3734157689621475e-02  -2.1991619323689962e-01  -3.5474367464070816e-01  -4.8773368408784668e-01  -6.1832055792641849e-01  -7.4604274506041701e-01  -8.7032380557674338e-01  -8.7035105378024324e-01  -8.7053961324666984e-01  -8.7042508140022468e-01  -8.7036760991625428e-01  -8.7052624013177504e-01  -8.7040148574789811e-01  -8.7049809085368446e-01  -8.7035257987661374e-01  -8.7048805917028715e-01  -8.7034592558907153e-01  -8.7038235867650660e-01  -8.7039532191146585e-01  -8.7057250215945681e-01  -8.7043931242137318e-01  -8.7054476681128501e-01  -8.7039382072373173e-01  -8.7037547260531112e-01  -8.7034611731381839e-01  -7.4604274506041701e-01  -6.1832055792641849e-01  -4.8773368408784668e-01  -3.5474367464070816e-01  -2.1991619323689962e-01  -8.3734157689621475e-02  5.3259419249328130e-02  1.9055234037525567e-01  3.2759656784248448e-01  4.6387948545084451e-01  5.9890573331252717e-01  7.3207276320436088e-01  8.6288627297898524e-01  9.9091527559808545e-01  1.1156148667378285e+00  1.2365331659421828e+00  1.3531326855807655e+00  1.4649996408609103e+00  1.5717861249070981e+00  1.6729911152461732e+00  1.7682685987699147e+00  1.8572185679425630e+00  1.9393554855372097e+00  2.0146816249201618e+00  2.1466321395214436e+00  2.2013650245418361e+00  2.2489342339468283e+00  2.2871537982160652e+00  2.3167560842333805e+00  2.3373580034151709e+00  2.3488244626138246e+00  2.3513827378219707e+00  2.3449192603882070e+00  2.3293433597273339e+00  2.3048903976883044e+00  2.2715580120850247e+00  2.2295223565247650e+00  2.1790150320596529e+00  2.1201314119136816e+00  2.0531533152406674e+00  1.9783133118520111e+00  1.8959636573007783e+00  1.8066067616085701e+00  1.7103666730355578e+00  1.6076564195330427e+00  1.4989195293504936e+00  1.3846314205069199e+00  1.2654043195399212e+00  1.1414739643620240e+00  1.0135089066349157e+00  8.8193694430816671e-01  7.4733893519176631e-01  6.1021697797167096e-01  4.7112764575805843e-01  3.3071279823688188e-01  1.8947425289552297e-01  4.8019522768647939e-02  -9.3104640960632312e-02  -2.3330608154239210e-01  -3.7197043272652575e-01  -5.0857640168091489e-01  -6.4260046804816573e-01  -7.7350212375790850e-01  -9.0077434776028797e-01  -1.0236893871849118e+00  -1.1419076473322098e+00  -1.2549351728608007e+00  -1.3624816812965730e+00  -1.4639126419017774e+00  -1.5587980745212378e+00  -1.6468635103523572e+00  -1.7273314954589485e+00  -1.8005773649697130e+00  -1.9214099874738155e+00  -1.9690555450531564e+00  -2.0087403062347184e+00  -2.0400456026910296e+00  -2.0631106110915995e+00  -2.0777803734154001e+00  -2.0841609872776758e+00  -2.0817929623982727e+00  -2.0709961969810959e+00  -2.0516559646571642e+00  -2.0240035304808019e+00  -1.9880423994185463e+00  -1.9440144853618813e+00  -1.8920197476690657e+00  -1.8320990360153993e+00  -1.7648345346936809e+00  -1.6901526030620657e+00  -1.6085123781609594e+00  -1.5201966252617742e+00  -1.4254708715586000e+00  -1.3248484634020206e+00  -1.2185800747120572e+00  -1.1071055340579432e+00  -9.9097374405648631e-01  -8.7034611731381839e-01  -8.7037547260531112e-01  -8.7039382072373173e-01  -8.7054476681128501e-01  -8.7043931242137318e-01  -8.7057250215945681e-01  -8.7039532191146585e-01  -8.7038235867650660e-01  -8.7034592558907153e-01  -8.7048805917028715e-01  -8.7035257987661374e-01  -8.7049809085368446e-01  -8.7040148574789811e-01  -8.7052624013177504e-01  -8.7036760991625428e-01  -8.7042508140022468e-01  -8.7053961324666984e-01  -8.7035105378024324e-01  -8.7032380557674338e-01  -1.8658675664778530e+00  -1.8655172770920987e+00  -1.8662943714527218e+00  -1.8660047521154928e+00  -1.8664237650266153e+00  -1.8657944900677372e+00  -1.8657053676244757e+00  -1.8658439486267311e+00  -1.8662936508088843e+00  -1.8657272711067114e+00  -1.8658121499112656e+00  -1.8661222744648622e+00  -1.8657061232968875e+00  -1.8659075562332066e+00  -1.8661727587661843e+00  -1.8660284056825072e+00  -1.8660339957744856e+00  -1.8657242947619046e+00  -1.8658008138566935e+00  2.0827491697053135e+00  2.0823691697298194e+00  2.0830104134394070e+00  2.0829711624140934e+00  2.0830042383380358e+00  2.0826971195479831e+00  2.0824813101102433e+00  2.0826196258042593e+00  2.0830634822191496e+00  2.0825659385921003e+00  2.0825773850874705e+00  2.0831853721793796e+00  2.0824599021467987e+00  2.0826794110846589e+00  2.0829677147963879e+00  2.0829340103883665e+00  2.0831585347071711e+00  2.0824076737600521e+00  2.0827815481284553e+00  -1.9190579103963514e+00  -2.0841020108384871e+00  -2.0813739294514462e+00  -1.5500197204810098e+00  -1.5649905257766135e+00  -1.9882467525964937e+00  -1.9541676325226229e+00  -2.0520643571107882e+00  -2.0479347857183154e+00  -1.3414373564025766e+00  -2.0436003256267830e+00  -1.7935382627226446e+00  -2.0603120806291666e+00  -1.2763568391143163e+00  -1.2830181194965655e+00  -2.0772036175527191e+00  -1.6796387930196581e+00  -1.7501212308346368e+00  -2.0581746101759908e+00  -2.0239563322485310e+00  -1.8084741756389691e+00  -1.8270535187413135e+00  -1.2355216203578991e+00  -1.2397701697884318e+00  -2.0268077732613925e+00  -1.5760080825103162e+00  -2.0833820416496658e+00  -2.0036024494267486e+00  -2.0543121658172381e+00  -1.9336318198398723e+00  -1.5418564386033393e+00  -2.0838349519398376e+00  -1.9025305111243749e+00  -1.9701939911783031e+00  -2.0709979966159580e+00  -2.0798882142314241e+00  -1.9907636801813147e+00  -2.0325351480622826e+00  -1.9869369716463989e+00  -1.9889096519544562e+00  -1.5390124510118830e+00  -2.0808235964592496e+00  -1.9809342870858506e+00  -1.9359868046897291e+00  -2.0075957502286403e+00  -1.5121111497409330e+00  -1.1367771376667890e+00  -2.0594687238376359e+00  -1.9788625203648660e+00  -1.1276142572892436e+00  -1.1266177441220540e+00  -1.1303358121707914e+00  -2.0672960800189517e+00  -2.0825733826872650e+00  -1.8869195670172634e+00  -1.1261188159813078e+00  -1.1211696679304304e+00  -1.7057084736072083e+00  -1.7265189858447927e+00  -2.0538862631881272e+00  -2.0812964023487934e+00  -2.0124148778824607e+00  -1.8394093638360101e+00  -1.8056549922364864e+00  -1.4044344736277841e+00  -2.0758768895610471e+00  -1.7020777579469786e+00  -1.6428604795427382e+00  -2.0697809908324452e+00  -1.3788894753271164e+00  -1.3830974650552776e+00  -2.0770833835356761e+00  -1.3994760436709077e+00  -2.0444050042588975e+00  -2.0783073055435692e+00  -1.9584106783659256e+00  -1.7062688702393798e+00  -1.6883360579465603e+00  -2.0820617037669642e+00  -2.0509852064481717e+00  -2.0802847621926461e+00  -1.5688561068993463e+00  -1.8408326513621878e+00  -2.0783895642699894e+00  -1.8022137890997771e+00  -2.0299510751769012e+00  -1.3813043031101571e+00  -2.0104972179338296e+00  -1.6036027774418791e+00  -1.9573411868240338e+00  -1.8174470088895862e+00  -1.4257686801451772e+00  -1.9541891217828624e+00  -1.4632611926348729e+00  -1.0614704851607184e+00  -1.8989565115672988e+00  -2.0387792910200382e+00  -1.0613633107605736e+00  -1.3263882455208718e+00  -2.0443777766248226e+00  -2.0511533861616824e+00  -2.0561105878637194e+00  -2.0110392640669117e+00  -1.9881705166362051e+00  -1.0615843391706483e+00  -1.0621880309277689e+00  -1.9988011185857837e+00  -2.0443953013504959e+00  -2.0620535248344538e+00  -1.9010518113752310e+00  -2.0136801909796667e+00  -2.0796075764788085e+00  -1.4477868722149154e+00  -1.9465668754105832e+00  -1.5671128564275376e+00  -2.0328936878640294e+00  -1.9432811370542644e+00  -1.6872640968221195e+00  -2.0672819153066184e+00  -1.9127044946150300e+00  -2.0252475972916204e+00  -1.9392489113051263e+00  -1.2670127695325579e+00  -1.8838006532489546e+00  -1.9520458637744609e+00  -1.9748970209451246e+00  -1.8948309959676031e+00  -2.0739362478759809e+00  -1.4242848168106024e+00  -1.4902402368136261e+00  -1.9408332733546865e+00  -1.9407250204214186e+00  -1.7052098209923332e+00  -2.0720135143806320e+00  -1.5596825682362880e+00  -2.0841291890527871e+00  -1.9253387328607707e+00  -2.0832482245215944e+00  -2.0130005087693346e+00  -1.9578110744277837e+00  -1.8866382339016092e+00  -2.0717256843536087e+00  -2.0777215797058446e+00  -2.0693262101046810e+00  -1.8188254323708974e+00  -1.6344271122471397e+00  -2.0798372711269555e+00  -2.0831706855666225e+00  -2.0327112716737767e+00  -1.0266750533042910e+00  -2.0778689129907328e+00  -1.2437221852256430e+00  -1.9506731023146509e+00  -2.0111374740292733e+00  -1.0271711464820450e+00  -1.9725253773412774e+00  -1.8275521135631441e+00  -1.9360451550291669e+00  -1.9987350464542795e+00  -1.2190747221617542e+00  -2.0643997815437927e+00  -2.0460761270630630e+00  -2.0845283409227728e+00  -2.0554992773866352e+00  -2.0842378374562909e+00  -1.0337075722597453e+00  -1.0307999866265134e+00  -1.0232779935710157e+00  -1.2478415762449468e+00  -1.2827899849574196e+00  -1.9381113008077537e+00  -1.9904849402777365e+00  -2.0676604624411552e+00  -1.8855858634238165e+00  -2.0832094089782687e+00  -2.0397333756333142e+00  -2.0600194992252687e+00  -1.9523042633997734e+00  -1.4639654624997174e+00  -1.9765146690795059e+00  -1.2426423224686156e+00  -1.9310860664396721e+00  -2.0830162815528244e+00  -1.9315447680438036e+00  -1.5626774273310464e+00  -1.6167372534427562e+00  -1.2591456450324370e+00  -1.7564572383767334e+00  -2.0028179251671521e+00  -1.5565547255091980e+00  -1.5950321762634125e+00  -2.0210173899167247e+00  -1.7741487611305720e+00  -2.0764017546712954e+00  -1.8030533793917509e+00  -9.9244303805395351e-01  -1.4937698585128554e+00  -1.6489151066441827e+00  -1.7857185106553208e+00  -2.0839341327728924e+00  -2.0005566331483120e+00  -1.2477437555740485e+00  -1.9839193235385344e+00  -1.8567021823752317e+00  -1.9392906675882444e+00  -2.0491492033188909e+00  -2.0731548692490409e+00  -1.6491891331544841e+00  -2.0466946570095503e+00  -1.4764807286560930e+00  -2.0162139969179984e+00  -2.0305393970470078e+00  -1.3983977387002817e+00  -2.0069842024457492e+00  -1.7621865933117666e+00  -9.6387885898379744e-01  -9.6467115294727657e-01  -2.0547089677420236e+00  -2.0651998567900698e+00  -9.9268377537660080e-01  -1.8829000487491108e+00  -2.0842766053088879e+00  -1.6403155720814935e+00  -1.7345385710108123e+00  -1.1728606754115076e+00  -1.1745337931431030e+00  -1.7287029610848359e+00  -1.7657204499760391e+00  -2.0305585721084753e+00  -2.0790980565245327e+00  -1.4809079766263720e+00  -1.6875999556904357e+00  -1.0014663983807297e+00  -9.8612374105591760e-01  -1.9255791442450465e+00  -2.0518500393049068e+00  -1.3992686913078893e+00  -1.1497361122926866e+00  -1.7497173895356333e+00  -1.7677062836791819e+00  -2.0703452063881782e+00  -1.1683263333808482e+00  -1.9880430443580992e+00  -2.0844092367814913e+00  -2.0177768891751451e+00  -1.1458764024290879e+00  -1.8282556696522008e+00  -1.9214526883151231e+00  -2.0239960903929313e+00  -2.0761842925309133e+00  -2.0774671913119498e+00  -1.7622636715398883e+00  -2.0757642058110184e+00  -1.4464187214212125e+00  -2.0245948418690141e+00  -1.4160925161894364e+00  -1.6421597130690158e+00  -1.9874090627908203e+00  -1.4749762332660958e+00  -2.0281354374905622e+00  -1.7407236355861069e+00  -1.8549687519731795e+00  -1.8814696468687437e+00  -2.0778486722597771e+00  -2.0322459219748148e+00  -1.1366711025021015e+00  -1.6470595615474848e+00  -1.7839782131520547e+00  -2.0678169608367551e+00  -1.6268558009096303e+00  -2.0633971925757519e+00  -1.3139057351309531e+00  -1.2734079717627587e+00  -1.6327718401915130e+00  -2.0587760730678082e+00  -1.3373524131741530e+00  -1.4603222448914939e+00  -2.0357441110455641e+00  -2.0708174893058979e+00  -1.5046902800831197e+00  -1.3583439470886285e+00  -2.0423802053148066e+00  -2.0656738506594654e+00  -2.0541620329967150e+00  -1.9014986926407218e+00  -1.8469119173246786e+00  -1.3662928594670487e+00  -2.0772266676642728e+00  -2.0842492033865034e+00  -1.3066912431151447e+00  -1.1462937278553176e+00  -1.8356649471866524e+00  -1.9681276843814368e+00  -2.0664344152572491e+00  -1.9593624372664644e+00  -2.0050449338944825e+00  -2.0838340722915665e+00  -2.0440246929935189e+00  -2.0802922035696012e+00  -2.0842063163212545e+00  -1.9164965141144816e+00  -1.9926640060327978e+00  -2.0836194870427778e+00  -1.9112534601697320e+00  -1.9462654451246781e+00  -2.0837539403904959e+00  -2.0838996919296213e+00  -1.5504847496945033e+00  -1.1710527905700907e+00  -1.1613497327587567e+00  -1.3501179864759096e+00  -1.8428207914363939e+00  -1.8731211281614186e+00  -1.5586717172923763e+00  -2.0272231071989664e+00  -1.3383906545493407e+00  -2.0677954158631358e+00  -1.6193607399088639e+00  -2.0704508874349750e+00  -1.2283514437322469e+00  -1.6231531552516303e+00  -2.0686241854385936e+00  -2.0545109155239381e+00  -1.9777131546092448e+00  -2.0188208391312314e+00  -2.0398091334062043e+00  -1.5492314115350450e+00  -1.8481964026518387e+00  -2.0720331020830942e+00  -1.9824142213437186e+00  -1.9120174134186769e+00  -1.9135813095144725e+00  -1.9633483667727523e+00  -1.3447949803286312e+00  -1.3374283910109583e+00  -1.7890042830497839e+00  -1.9808510981959715e+00  -1.1454472245558966e+00  -1.9509571665334029e+00  -1.4906866731908790e+00  -1.9914497769088233e+00  -1.9964876276475214e+00  -2.0111143896877031e+00  -1.4273686560965402e+00  -2.0776759450077558e+00  -2.0341086203068803e+00  -1.4869636968703821e+00  -1.5121545597526900e+00  -2.0602793611238965e+00  -2.0760515524802448e+00  -2.0695442884657504e+00  -2.0362970770706119e+00  -2.0738341726684313e+00  -2.0793848831613357e+00  -2.0642439694367676e+00  -1.8850003084205864e+00  -1.9136309444152926e+00  -1.7300500104957082e+00  -2.0055128352915457e+00  -2.0572870280592679e+00  -1.7260995583837930e+00  -2.0837587403918727e+00  -1.9921836670662105e+00  -1.8024571273685266e+00  -1.8419509057134484e+00  -2.0114856978214370e+00  -1.6831543064821508e+00  -2.0326337706355617e+00  -1.3967825823194520e+00  -2.0820792993232713e+00  -2.0828430517403023e+00  -9.7045649817144464e-01  -2.0508415502232928e+00  -9.6368516269534710e-01  -1.9791205627946260e+00  -9.7677496085258242e-01  -1.6908895926550642e+00  -1.4714736583925476e+00  -2.0378289468692912e+00  -2.0635881647951488e+00  -1.8657454287884399e+00  -1.8580574012312003e+00  -9.6367843052534508e-01  -1.9090357397000817e+00  -1.9799059668549612e+00  -2.0031759668185658e+00  -1.9618609133354998e+00  -1.9052362750817680e+00  -2.0223937942665038e+00  -2.0825021145782663e+00  -1.9246568714387036e+00  -1.9075905719867472e+00  -9.6255153517932779e-01  -9.6453091562435100e-01  -2.0188381919768221e+00  -2.0482974804567506e+00  -1.9715356145993079e+00  -2.0516831971191234e+00  -1.9749957535825919e+00  -9.6647594701941575e-01  -1.4902779334909544e+00  -1.9297425576068468e+00  -1.9528385945945974e+00  -1.2252524712685140e+00  -1.9627750042251186e+00  -1.9701776397661257e+00  -1.9128012526293257e+00  -1.3160728483552038e+00  -2.0327622062179960e+00  -1.6228149241531900e+00  -9.5926964628395606e-01  -2.0692961540919317e+00  -2.0806096727334578e+00  -1.2062336971846459e+00  -1.3594040218319221e+00  -2.0833059400538811e+00  -1.8757242944671901e+00  -2.0607504956229548e+00  -1.1429578755062355e+00  -9.7043692699778494e-01  -2.0218077610829850e+00  -2.0096138298576594e+00  -2.0318881883502882e+00  -1.4996874879459656e+00  -1.9110265777204369e+00  -1.9098812330877279e+00  -1.9849078552732418e+00  -2.0805763901262520e+00  -1.1224747938865183e+00  -1.1393727917432008e+00  -1.8978174521385671e+00  -2.0640906383400615e+00  -2.0527620143618330e+00  -1.9169967881860266e+00  -2.0293928535234369e+00  -1.6664660332492036e+00  -2.0831283342161178e+00  -1.2002705483253235e+00  -1.9336055733170254e+00  -2.0465132541954398e+00  -2.0524370694766620e+00  -2.0731425582483349e+00  -1.0813861285029545e+00  -2.0651287466511050e+00  -1.8621338572723845e+00  -1.9080367405554930e+00  -2.0390366695087518e+00  -1.9513964622577418e+00  -1.5658836635366380e+00  -2.0695756007387236e+00  -1.9632176652179023e+00  -1.9682927632463674e+00  -9.6062369141479709e-01  -2.0489518087004042e+00  -1.9397399944220783e+00  -1.3244986030142505e+00  -1.9989191078053996e+00  -2.0330603432200869e+00  -2.0798672023984945e+00  -1.6496878156425423e+00  -2.0133135140382841e+00  -1.0851954637949992e+00  -1.1036856867167320e+00  -2.0792513795514056e+00  -1.9106046086169157e+00  -1.2696753063841777e+00  -1.9162239235992788e+00  -2.0793396079582953e+00  -2.0252693824150638e+00  -1.9203725758277848e+00  -1.9830924150909424e+00  -1.7119784114765344e+00  -1.9016390194951371e+00  -2.0715699617689332e+00  -1.0572793075140223e+00  -1.7820017396636769e+00  -1.9728117820345026e+00  -1.9338928700615690e+00  -1.9500387394997429e+00  -1.9096587660878304e+00  -2.0838199964032760e+00  -2.0736350369589522e+00  -1.9660377622985341e+00  -1.9690721501711514e+00  -1.3773559162749360e+00  -1.9028805921714320e+00  -1.9494867586527811e+00  -1.4388704113854438e+00  -2.0611390779547514e+00  -1.2579009025585361e+00  -1.9227418255209321e+00  -1.8470487961545041e+00  -1.9748666538206605e+00  -1.8980655772442556e+00  -2.0826456955447767e+00  -2.0735963840227045e+00  -2.0207576792168300e+00  -1.7424286817446453e+00  -1.3624023180016480e+00  -1.9189013757965780e+00  -2.0000672981831129e+00  -9.6313376146457974e-01  -9.6263125003761585e-01  -2.0678600416170361e+00  -2.0718674682017459e+00  -1.5731847268127412e+00  -1.9449681868854796e+00  -1.0551934659583899e+00  -2.0813295932479634e+00  -2.0382526985218834e+00  -1.9013546659402865e+00  -1.2067658959758780e+00  -2.0756565895969743e+00  -2.0349186384544748e+00  -1.9189324778919883e+00  -9.5856626665394329e-01  -9.5902265650255769e-01  -1.3176630018359485e+00  -1.6791742178969660e+00  -1.7371204826673694e+00  -2.0601834196887201e+00  -1.4988803169014548e+00  -2.0810018253417901e+00  -1.5644