<?xml version="1.0"?>
<VTKFile type="UnstructuredGrid"  version="0.1"  >
<UnstructuredGrid>
<Piece  NumberOfPoints="2730" NumberOfCells="5218">
<Points>
<DataArray  type="Float64"  NumberOfComponents="3"  format="ascii">-0.5 -0.1 0  -0.25 -0.1 0  0.25 -0.1 0  0.5 -0.1 0  0.5 0.1 0  0.25 0.1 0  -0.25 0.1 0  -0.5 0.1 0  -0.49 -0.1 0  -0.48 -0.1 0  -0.47 -0.1 0  -0.4600000000000001 -0.1 0  -0.4500000000000001 -0.1 0  -0.4400000000000001 -0.1 0  -0.4300000000000002 -0.1 0  -0.4200000000000002 -0.1 0  -0.4100000000000002 -0.1 0  -0.4000000000000002 -0.1 0  -0.3900000000000002 -0.1 0  -0.3800000000000002 -0.1 0  -0.3700000000000001 -0.1 0  -0.3600000000000001 -0.1 0  -0.3500000000000001 -0.1 0  -0.3400000000000001 -0.1 0  -0.3300000000000001 -0.1 0  -0.3200000000000001 -0.1 0  -0.3100000000000001 -0.1 0  -0.3 -0.1 0  -0.29 -0.1 0  -0.28 -0.1 0  -0.27 -0.1 0  -0.26 -0.1 0  -0.2400000000000277 -0.1 0  -0.2300000000000555 -0.1 0  -0.2200000000000832 -0.1 0  -0.210000000000111 -0.1 0  -0.2000000000001387 -0.1 0  -0.1900000000001664 -0.1 0  -0.1800000000001942 -0.1 0  -0.1700000000002219 -0.1 0  -0.1600000000002497 -0.1 0  -0.1500000000002774 -0.1 0  -0.1400000000003052 -0.1 0  -0.1300000000003329 -0.1 0  -0.1200000000003606 -0.1 0  -0.1100000000003884 -0.1 0  -0.1000000000004161 -0.1 0  -0.09000000000044384 -0.1 0  -0.08000000000047156 -0.1 0  -0.0700000000004993 -0.1 0  -0.06000000000052705 -0.1 0  -0.0500000000005548 -0.1 0  -0.04000000000058251 -0.1 0  -0.03000000000061029 -0.1 0  -0.02000000000063804 -0.1 0  -0.01000000000066575 -0.1 0  -6.880607195114408e-13 -0.1 0  0.009999999999334319 -0.1 0  0.01999999999936203 -0.1 0  0.02999999999938974 -0.1 0  0.0399999999994175 -0.1 0  0.04999999999944521 -0.1 0  0.05999999999947297 -0.1 0  0.06999999999950068 -0.1 0  0.07999999999952839 -0.1 0  0.08999999999955621 -0.1 0  0.09999999999958392 -0.1 0  0.1099999999996117 -0.1 0  0.1199999999996394 -0.1 0  0.1299999999996671 -0.1 0  0.1399999999996949 -0.1 0  0.1499999999997226 -0.1 0  0.1599999999997503 -0.1 0  0.1699999999997781 -0.1 0  0.1799999999998058 -0.1 0  0.1899999999998335 -0.1 0  0.1999999999998613 -0.1 0  0.209999999999889 -0.1 0  0.2199999999999168 -0.1 0  0.2299999999999445 -0.1 0  0.2399999999999722 -0.1 0  0.26 -0.1 0  0.27 -0.1 0  0.28 -0.1 0  0.2899999999999999 -0.1 0  0.2999999999999999 -0.1 0  0.3099999999999999 -0.1 0  0.3199999999999998 -0.1 0  0.3299999999999998 -0.1 0  0.3399999999999998 -0.1 0  0.3499999999999998 -0.1 0  0.3599999999999998 -0.1 0  0.3699999999999998 -0.1 0  0.3799999999999999 -0.1 0  0.3899999999999999 -0.1 0  0.3999999999999999 -0.1 0  0.4099999999999999 -0.1 0  0.4199999999999999 -0.1 0  0.4299999999999999 -0.1 0  0.4399999999999999 -0.1 0  0.45 -0.1 0  0.46 -0.1 0  0.47 -0.1 0  0.48 -0.1 0  0.49 -0.1 0  0.5 -0.09000000000002303 0  0.5 -0.08000000000004391 0  0.5 -0.07000000000006369 0  0.5 -0.06000000000009215 0  0.5 -0.05000000000012061 0  0.5 -0.04000000000014908 0  0.5 -0.03000000000017754 0  0.5 -0.0200000000002114 0  0.5 -0.01000000000023986 0  0.5 -2.655931030659531e-13 0  0.5 0.00999999999975798 0  0.5 0.01999999999978645 0  0.5 0.02999999999981545 0  0.5 0.03999999999983792 0  0.5 0.04999999999986582 0  0.5 0.05999999999989369 0  0.5 0.06999999999991621 0  0.5 0.07999999999994523 0  0.5 0.08999999999997532 0  0.49 0.1 0  0.48 0.1 0  0.47 0.1 0  0.4600000000000001 0.1 0  0.4500000000000001 0.1 0  0.4400000000000001 0.1 0  0.4300000000000002 0.1 0  0.4200000000000002 0.1 0  0.4100000000000002 0.1 0  0.4000000000000002 0.1 0  0.3900000000000002 0.1 0  0.3800000000000002 0.1 0  0.3700000000000001 0.1 0  0.3600000000000001 0.1 0  0.3500000000000001 0.1 0  0.3400000000000001 0.1 0  0.3300000000000001 0.1 0  0.3200000000000001 0.1 0  0.3100000000000001 0.1 0  0.3 0.1 0  0.29 0.1 0  0.28 0.1 0  0.27 0.1 0  0.26 0.1 0  0.2400000000000277 0.1 0  0.2300000000000555 0.1 0  0.2200000000000832 0.1 0  0.210000000000111 0.1 0  0.2000000000001387 0.1 0  0.1900000000001664 0.1 0  0.1800000000001942 0.1 0  0.1700000000002219 0.1 0  0.1600000000002497 0.1 0  0.1500000000002774 0.1 0  0.1400000000003052 0.1 0  0.1300000000003329 0.1 0  0.1200000000003606 0.1 0  0.1100000000003884 0.1 0  0.1000000000004161 0.1 0  0.09000000000044384 0.1 0  0.08000000000047156 0.1 0  0.0700000000004993 0.1 0  0.06000000000052705 0.1 0  0.0500000000005548 0.1 0  0.04000000000058251 0.1 0  0.03000000000061029 0.1 0  0.02000000000063804 0.1 0  0.01000000000066575 0.1 0  6.880607195114408e-13 0.1 0  -0.009999999999334319 0.1 0  -0.01999999999936203 0.1 0  -0.02999999999938974 0.1 0  -0.0399999999994175 0.1 0  -0.04999999999944521 0.1 0  -0.05999999999947297 0.1 0  -0.06999999999950068 0.1 0  -0.07999999999952839 0.1 0  -0.08999999999955621 0.1 0  -0.09999999999958392 0.1 0  -0.1099999999996117 0.1 0  -0.1199999999996394 0.1 0  -0.1299999999996671 0.1 0  -0.1399999999996949 0.1 0  -0.1499999999997226 0.1 0  -0.1599999999997503 0.1 0  -0.1699999999997781 0.1 0  -0.1799999999998058 0.1 0  -0.1899999999998335 0.1 0  -0.1999999999998613 0.1 0  -0.209999999999889 0.1 0  -0.2199999999999168 0.1 0  -0.2299999999999445 0.1 0  -0.2399999999999722 0.1 0  -0.26 0.1 0  -0.27 0.1 0  -0.28 0.1 0  -0.2899999999999999 0.1 0  -0.2999999999999999 0.1 0  -0.3099999999999999 0.1 0  -0.3199999999999998 0.1 0  -0.3299999999999998 0.1 0  -0.3399999999999998 0.1 0  -0.3499999999999998 0.1 0  -0.3599999999999998 0.1 0  -0.3699999999999998 0.1 0  -0.3799999999999999 0.1 0  -0.3899999999999999 0.1 0  -0.3999999999999999 0.1 0  -0.4099999999999999 0.1 0  -0.4199999999999999 0.1 0  -0.4299999999999999 0.1 0  -0.4399999999999999 0.1 0  -0.45 0.1 0  -0.46 0.1 0  -0.47 0.1 0  -0.48 0.1 0  -0.49 0.1 0  -0.5 0.09000000000002303 0  -0.5 0.08000000000004391 0  -0.5 0.07000000000006369 0  -0.5 0.06000000000009215 0  -0.5 0.05000000000012061 0  -0.5 0.04000000000014908 0  -0.5 0.03000000000017754 0  -0.5 0.0200000000002114 0  -0.5 0.01000000000023986 0  -0.5 2.655931030659531e-13 0  -0.5 -0.00999999999975798 0  -0.5 -0.01999999999978645 0  -0.5 -0.02999999999981545 0  -0.5 -0.03999999999983792 0  -0.5 -0.04999999999986582 0  -0.5 -0.05999999999989369 0  -0.5 -0.06999999999991621 0  -0.5 -0.07999999999994523 0  -0.5 -0.08999999999997532 0  -0.25 0.09000000000002303 0  -0.25 0.08000000000004391 0  -0.25 0.07000000000006369 0  -0.25 0.06000000000009215 0  -0.25 0.05000000000012061 0  -0.25 0.04000000000014908 0  -0.25 0.03000000000017754 0  -0.25 0.0200000000002114 0  -0.25 0.01000000000023986 0  -0.25 2.655931030659531e-13 0  -0.25 -0.00999999999975798 0  -0.25 -0.01999999999978645 0  -0.25 -0.02999999999981545 0  -0.25 -0.03999999999983792 0  -0.25 -0.04999999999986582 0  -0.25 -0.05999999999989369 0  -0.25 -0.06999999999991621 0  -0.25 -0.07999999999994523 0  -0.25 -0.08999999999997532 0  0.25 0.09000000000002303 0  0.25 0.08000000000004391 0  0.25 0.07000000000006369 0  0.25 0.06000000000009215 0  0.25 0.05000000000012061 0  0.25 0.04000000000014908 0  0.25 0.03000000000017754 0  0.25 0.0200000000002114 0  0.25 0.01000000000023986 0  0.25 2.655931030659531e-13 0  0.25 -0.00999999999975798 0  0.25 -0.01999999999978645 0  0.25 -0.02999999999981545 0  0.25 -0.03999999999983792 0  0.25 -0.04999999999986582 0  0.25 -0.05999999999989369 0  0.25 -0.06999999999991621 0  0.25 -0.07999999999994523 0  0.25 -0.08999999999997532 0  -0.3850000000000003 -2.08166817117213e-17 0  -0.3217478072742469 0.03007626579408589 0  -0.3302092938139704 -0.03499011159768359 0  -0.4366935483871021 0.036693548387094 0  -0.4350297517421554 -0.03560429865713959 0  -0.3700323317384431 0.0494779391693463 0  -0.3778518540075231 -0.0496041553011964 0  -0.2949193640910946 -0.007649163120994062 0  -0.2930521137561938 -0.05694788624381432 0  -0.4583731736448897 -0.001215319834539247 0  -0.2913947207500996 0.05860527924989712 0  -0.4058579199933758 0.06268102441448029 0  -0.3459760841140711 -6.780346038333065e-06 0  -0.4646153994063984 0.06100234437856374 0  -0.4640054291352568 -0.06321884865692481 0  -0.3348335884184006 0.06363838236202049 0  -0.421356328333676 0.003541006712621568 0  -0.4120119114964419 -0.06356736075056821 0  -0.3471413390599406 -0.06535290311494767 0  -0.2845778682310051 0.02495476001244536 0  -0.4036347569859151 -0.02957578179079991 0  -0.4008038297516275 0.02912394953576058 0  -0.4684464750612591 0.03012383645431143 0  -0.4680517012023024 -0.03010903590294818 0  -0.3590097397730768 -0.02683727700402486 0  -0.433770700672056 0.07049211514509394 0  -0.3183899248882524 -0.07132030615315052 0  -0.2786322459778085 -0.03158677644556719 0  -0.3486837543859873 0.02771664936262214 0  -0.3821065399865956 0.07272535841062555 0  -0.4376032469332309 -0.07379314933767983 0  -0.3196320204582093 0.002595122969680506 0  -0.3880668591275516 -0.07396612294530693 0  -0.3742378196480034 0.02350060963641981 0  -0.3047151843601849 -0.03117523435393533 0  -0.3121330384030688 0.07485353556697853 0  -0.2752826937641819 -0.07336098674719331 0  -0.3571666671737028 0.07538621545144265 0  -0.2742213809778471 0.07514005730299225 0  -0.2747898059150209 0.00492397814091739 0  -0.437923130018529 -0.01418843422685659 0  -0.3134057994256593 0.04985811985167827 0  -0.2727715686081871 0.0454393012412595 0  -0.3816362970490225 -0.02274608622601491 0  -0.3648615044101529 -0.07875302035426339 0  -0.4408610826074181 0.01462565879120544 0  -0.4773683522588593 0.01085151015484962 0  -0.2982306820441021 -0.07828377112297646 0  -0.2722508120310425 -0.05134182107518803 0  -0.4781799624717576 0.07811710671504565 0  -0.4782710545244382 -0.07824050944143322 0  -0.4779740084229234 -0.0112266819954318 0  -0.3022133220633222 0.01962797382460943 0  -0.3162722290862882 -0.04972488152854707 0  -0.3909157978710001 0.04714581587945635 0  -0.4783356259668664 0.04772111364468869 0  -0.4787470645745416 -0.04866862524229203 0  -0.4180150985993636 0.03927071917149167 0  -0.4152578092014954 0.0804870785508901 0  -0.3489659630856133 -0.0456212538077103 0  -0.33112725123118 -0.0152079172306502 0  -0.3635240430342228 -0.00532618303806893
[...]
<PointData  Scalars="f_788-0"> 
<DataArray  type="Float64"  Name="f_788-0"  format="ascii">1.7152771281864505e+00  -1.2157779229435421e+00  7.8853943756453260e-01  1.7152771281864505e+00  1.7152771281864505e+00  7.8853943756453260e-01  -1.2157779229435421e+00  1.7152771281864505e+00  1.6491440994029272e+00  1.5757804129659194e+00  1.4955273633090977e+00  1.4085149556160002e+00  1.3150431161461738e+00  1.2156195442322568e+00  1.1104862283873549e+00  1.0001079085149986e+00  8.8493244902771984e-01  7.6530209008447270e-01  6.4185861032085889e-01  5.1490493311273156e-01  3.8500781813466772e-01  2.5268345678597931e-01  1.1841293585971278e-01  -1.7271608332717552e-02  -1.5386696779850756e-01  -2.9082753311563492e-01  -4.2761153307946531e-01  -5.6370288234194177e-01  -6.9858630614787121e-01  -8.3175362069846326e-01  -9.6262245170011873e-01  -1.0907583293934633e+00  -1.3422927091288406e+00  -1.4644316067387511e+00  -1.5818672257606214e+00  -1.6936376807922127e+00  -1.7995733646179084e+00  -1.8991402191086582e+00  -1.9919488602540647e+00  -2.0778846698747753e+00  -2.1564227023523492e+00  -2.2272821613136347e+00  -2.2898313787518938e+00  -2.3441880766021286e+00  -2.3901206448111920e+00  -2.4275084509313656e+00  -2.4561683054493644e+00  -2.4757092624959016e+00  -2.4861084623181173e+00  -2.4876554388697225e+00  -2.4801891083431564e+00  -2.4635057154688220e+00  -2.4381493420773976e+00  -2.4037666566435565e+00  -2.3606148506768090e+00  -2.3090164469563064e+00  -2.2490574015778999e+00  -2.1811468124900943e+00  -2.1052807851119395e+00  -2.0221411315842137e+00  -1.9318203909073532e+00  -1.8346651280528814e+00  -1.7310671648405840e+00  -1.6214468027367690e+00  -1.5064304726538644e+00  -1.3863435055211371e+00  -1.2616489254107386e+00  -1.1328806184798563e+00  -1.0005526713457622e+00  -8.6524167293626919e-01  -7.2747247192583786e-01  -5.8779481303026870e-01  -4.4678420523697904e-01  -3.0499629357227459e-01  -1.6301799663413180e-01  -2.1408754318257218e-02  1.1923926855275374e-01  2.5834332981062691e-01  3.9540249205789674e-01  5.2955202687933134e-01  6.6101556303594899e-01  9.0692145652503253e-01  1.0209966236631389e+00  1.1303327169900039e+00  1.2342702039042506e+00  1.3324968244183950e+00  1.4246682555073829e+00  1.5103701568652670e+00  1.5894012313703434e+00  1.6613535530124015e+00  1.7258707375151077e+00  1.7828110280650855e+00  1.8319054630898626e+00  1.8731330565286737e+00  1.9061577403311190e+00  1.9306372663743090e+00  1.9468476270922295e+00  1.9546428215586837e+00  1.9539643150118871e+00  1.9446160294104053e+00  1.9269392068872284e+00  1.9008031652182877e+00  1.8664757733583439e+00  1.8238839045532673e+00  1.7733351523992880e+00  1.7148180304130423e+00  1.7148746815508655e+00  1.7152821659273532e+00  1.7150067501721022e+00  1.7148908364180939e+00  1.7151693063734708e+00  1.7149594638834627e+00  1.7151747900743872e+00  1.7148754752606192e+00  1.7151258492139032e+00  1.7148978452694739e+00  1.7149758055844708e+00  1.7150001367122196e+00  1.7153094766581809e+00  1.7150695695457958e+00  1.7152687559398887e+00  1.7149757339497735e+00  1.7149484787457148e+00  1.7148790346997322e+00  1.7733351523992880e+00  1.8238839045532673e+00  1.8664757733583439e+00  1.9008031652182877e+00  1.9269392068872284e+00  1.9446160294104053e+00  1.9539643150118871e+00  1.9546428215586837e+00  1.9468476270922295e+00  1.9306372663743090e+00  1.9061577403311190e+00  1.8731330565286737e+00  1.8319054630898626e+00  1.7828110280650855e+00  1.7258707375151077e+00  1.6613535530124015e+00  1.5894012313703434e+00  1.5103701568652670e+00  1.4246682555073829e+00  1.3324968244183950e+00  1.2342702039042506e+00  1.1303327169900039e+00  1.0209966236631389e+00  9.0692145652503253e-01  6.6101556303594899e-01  5.2955202687933134e-01  3.9540249205789674e-01  2.5834332981062691e-01  1.1923926855275374e-01  -2.1408754318257218e-02  -1.6301799663413180e-01  -3.0499629357227459e-01  -4.4678420523697904e-01  -5.8779481303026870e-01  -7.2747247192583786e-01  -8.6524167293626919e-01  -1.0005526713457622e+00  -1.1328806184798563e+00  -1.2616489254107386e+00  -1.3863435055211371e+00  -1.5064304726538644e+00  -1.6214468027367690e+00  -1.7310671648405840e+00  -1.8346651280528814e+00  -1.9318203909073532e+00  -2.0221411315842137e+00  -2.1052807851119395e+00  -2.1811468124900943e+00  -2.2490574015778999e+00  -2.3090164469563064e+00  -2.3606148506768090e+00  -2.4037666566435565e+00  -2.4381493420773976e+00  -2.4635057154688220e+00  -2.4801891083431564e+00  -2.4876554388697225e+00  -2.4861084623181173e+00  -2.4757092624959016e+00  -2.4561683054493644e+00  -2.4275084509313656e+00  -2.3901206448111920e+00  -2.3441880766021286e+00  -2.2898313787518938e+00  -2.2272821613136347e+00  -2.1564227023523492e+00  -2.0778846698747753e+00  -1.9919488602540647e+00  -1.8991402191086582e+00  -1.7995733646179084e+00  -1.6936376807922127e+00  -1.5818672257606214e+00  -1.4644316067387511e+00  -1.3422927091288406e+00  -1.0907583293934633e+00  -9.6262245170011873e-01  -8.3175362069846326e-01  -6.9858630614787121e-01  -5.6370288234194177e-01  -4.2761153307946531e-01  -2.9082753311563492e-01  -1.5386696779850756e-01  -1.7271608332717552e-02  1.1841293585971278e-01  2.5268345678597931e-01  3.8500781813466772e-01  5.1490493311273156e-01  6.4185861032085889e-01  7.6530209008447270e-01  8.8493244902771984e-01  1.0001079085149986e+00  1.1104862283873549e+00  1.2156195442322568e+00  1.3150431161461738e+00  1.4085149556160002e+00  1.4955273633090977e+00  1.5757804129659194e+00  1.6491440994029272e+00  1.7148790346997322e+00  1.7149484787457148e+00  1.7149757339497735e+00  1.7152687559398887e+00  1.7150695695457958e+00  1.7153094766581809e+00  1.7150001367122196e+00  1.7149758055844708e+00  1.7148978452694739e+00  1.7151258492139032e+00  1.7148754752606192e+00  1.7151747900743872e+00  1.7149594638834627e+00  1.7151693063734708e+00  1.7148908364180939e+00  1.7150067501721022e+00  1.7152821659273532e+00  1.7148746815508655e+00  1.7148180304130423e+00  -1.2156286292810714e+00  -1.2154585923593453e+00  -1.2158280266550110e+00  -1.2156949181663852e+00  -1.2158864725656024e+00  -1.2155902381872452e+00  -1.2155371899090548e+00  -1.2156009428868706e+00  -1.2158214084883900e+00  -1.2155513073166511e+00  -1.2155971073934986e+00  -1.2157701152400593e+00  -1.2155533847271853e+00  -1.2156601109596874e+00  -1.2157995499172556e+00  -1.2157238985172203e+00  -1.2157271416056510e+00  -1.2155591228830058e+00  -1.2156006211618451e+00  7.8841420119075289e-01  7.8821652773015138e-01  7.8855699961516912e-01  7.8852996805511766e-01  7.8855271709593189e-01  7.8838319733592188e-01  7.8826791561707599e-01  7.8834129677061715e-01  7.8857618032148158e-01  7.8831410779165445e-01  7.8832154129388909e-01  7.8864376173666995e-01  7.8826167982951290e-01  7.8837853503494060e-01  7.8853145248167478e-01  7.8851348421221268e-01  7.8862982939942539e-01  7.8823053897548634e-01  7.8843134459890496e-01  5.7880172501758564e-01  -2.6687151085402461e-01  -1.5102025886477227e-01  1.1813967898894489e+00  1.1641255353751028e+00  3.8552547146004673e-01  4.8724218469188307e-01  -6.3233730702001245e-01  -6.5758730317700997e-01  1.3935602299552736e+00  -6.7984062847360538e-01  8.3584645605765528e-01  6.3945276797054598e-02  1.4493660930600778e+00  1.4442629023724571e+00  -8.7786450871894628e-02  1.0154771638624325e+00  9.0830599624333419e-01  7.9769724760914970e-02  -7.7099498851255477e-01  8.0923064879242701e-01  7.7511526825009203e-01  1.4825625112730447e+00  1.4791735729585227e+00  2.3939546921804930e-01  1.1507842364042602e+00  -3.1287485239050783e-01  -8.4974823474395245e-01  1.0058463114684832e-01  5.4187973127886657e-01  1.1908254602225876e+00  -2.9584448258230439e-01  6.1748844256738011e-01  4.4032733999821227e-01  -4.9964190967071936e-01  -3.9847746793530514e-01  -8.9373023237950600e-01  2.1477668876625755e-01  -9.0774011461203441e-01  -9.0018962128010993e-01  1.1941822139879346e+00  -3.8105804102266055e-01  -9.2662690028091177e-01  5.3588281551494443e-01  3.1730745457849030e-01  1.2242731475227178e+00  1.5551691525534657e+00  -5.8763641968176350e-01  -9.3346402104898096e-01  1.5614880403294225e+00  1.5622314556899803e+00  1.5604468406434084e+00  -5.3370326410241731e-01  -3.4185806871784480e-01  6.5334103894714135e-01  1.5630890818776346e+00  1.5658498550631779e+00  9.7771783887248676e-01  9.4609993552313487e-01  1.0440744842091648e-01  -1.3841963402845181e-01  2.9959095676010050e-01  7.5184568935355656e-01  8.1461406401713188e-01  1.3357078121530264e+00  -6.9201402073395327e-02  9.8302581846098114e-01  1.0656962651976212e+00  -5.1447346155003415e-01  1.3599332662357995e+00  1.3562248822206762e+00  -7.9648432881566200e-02  1.3401992674552858e+00  -6.7872223834701861e-01  -9.3728599983764926e-02  -9.9369606741984018e-01  9.7671991078930809e-01  1.0028328364540895e+00  -1.5857122547819669e-01  1.2524028939081822e-01  -3.9480656807362285e-01  1.1593080785155181e+00  7.4794476035048407e-01  -1.0032727658443612e-01  8.2051483410896331e-01  2.2779005460584928e-01  1.3577944963084727e+00  3.0564304775559881e-01  1.1167497110168236e+00  -9.9724097915668442e-01  7.9297940081815477e-01  1.3146870703807754e+00  -1.0051785958181227e+00  1.2768282011609575e+00  1.6057110309931197e+00  6.2614451042900354e-01  -7.0358962408240422e-01  1.6058002362013242e+00  1.4071366032136283e+00  -6.7651867219530626e-01  1.2141395532507561e-01  9.0500477927515810e-02  3.0367371744338384e-01  3.8429745908275942e-01  1.6057975952682542e+00  1.6055865468695620e+00  3.4879529212639915e-01  -6.7607948191461698e-01  5.1602914765734344e-02  6.2093364409976493e-01  2.9373436029299860e-01  -4.0180409003792039e-01  1.2926349052352142e+00  -1.0261101857077295e+00  1.1617426105663338e+00  -7.3098925530793202e-01  -1.0349655193059089e+00  1.0038275564930306e+00  1.1665080386612067e-02  5.9309603233737007e-01  -7.6636431272657357e-01  -1.0449256887154390e+00  1.4570734193541441e+00  6.5903427786932656e-01  4.9207240484702863e-01  4.2624025715136127e-01  6.3519459226838348e-01  -4.7123315104410385e-01  1.3159432767590442e+00  1.2485415000065363e+00  -1.0411302536137090e+00  -1.0414282280309335e+00  9.7779413054671194e-01  -4.9064739544793046e-01  1.1702806633172229e+00  -2.7631807159046734e-01  5.6281338399499692e-01  -3.1563224159565906e-01  -8.1446494907927558e-01  4.7615269015680356e-01  6.5302652811369788e-01  -4.9478132408922088e-01  -9.1184351631305824e-02  -5.1636370249891073e-01  7.9050741384968448e-01  1.0766949988626202e+00  -1.2279605108773638e-01  -3.3078821139713072e-01  -7.3322070837132758e-01  1.6278190306610909e+00  -9.1733292090164689e-02  1.4758235580462109e+00  4.9682238640183679e-01  -8.2247223619593646e-01  1.6275276751827099e+00  4.3386138690054199e-01  7.7365678865585386e-01  -1.0539106848965312e+00  -8.6774215303547353e-01  1.4954312652452804e+00  -5.5288383531884822e-01  1.4832199679877156e-01  -2.3738958732997567e-01  9.4165032570686896e-02  -2.8419711401505726e-01  1.6231256978749393e+00  1.6249180797356138e+00  1.6298544481640396e+00  1.4730899232169299e+00  1.4441214414962833e+00  -1.0487128599964732e+00  3.7635299788462956e-01  -5.2806723585912452e-01  6.5578021266588304e-01  -3.1826759477330702e-01  1.8151833196001205e-01  6.6485854419515295e-02  4.9173102699508670e-01  1.2759369440743817e+00  4.2280969504192978e-01  1.4771948383809752e+00  -1.0675961795272315e+00  -1.8892414221589124e-01  -1.0657405286290647e+00  1.1662891700208349e+00  1.0993480105846198e+00  1.4632778595704155e+00  8.9842658721585800e-01  -8.5339182487092446e-01  1.1737929088718473e+00  1.1278408682691388e+00  -7.8543023854735106e-01  8.6950665357959445e-01  -4.4477914640769373e-01  8.1933941421985712e-01  1.6481766574385037e+00  1.2447207839874292e+00  1.0579515965657731e+00  8.5031879256349807e-01  -2.7835647235041250e-01  -8.6194044657883540e-01  1.4723854146311197e+00  -9.1680054636095054e-01  7.1698859918377311e-01  -1.0464574657872736e+00  -6.4953127059246696e-01  -3.7730744748579972e-02  1.0568503655460677e+00  1.4515795777274343e-01  1.2634043508155086e+00  -8.0283152684347536e-01  2.2444626780934471e-01  1.3409921332900536e+00  3.1910175690035963e-01  8.8974537106164031e-01  1.6646536419452460e+00  1.6643283378618576e+00  -6.2043576414007306e-01  -5.5189368537530969e-01  1.6484843558137892e+00  6.6242611271924456e-01  -2.8354616124525961e-01  1.0689092821250465e+00  9.3350058971655148e-01  1.5295793296773057e+00  1.5286294754475340e+00  9.4208101675440548e-01  8.8326730781213636e-01  2.2551971631040002e-01  -4.0835137902013752e-01  1.2587215502660030e+00  1.0035145282395888e+00  1.6433859761115803e+00  1.6520137699818405e+00  -1.0818145362625158e+00  -6.3724684085122740e-01  1.3401866434123997e+00  1.5467282749262612e+00  9.0887437120357684e-01  8.8047831662867104e-01  -1.2792602967529366e-02  1.5331107566398390e+00  -9.0432016461625209e-01  -2.6497162413239139e-01  -7.9742987260466480e-01  1.5495347910052071e+00  7.7255957789194429e-01  -1.0913943018627403e+00  2.5399277093704964e-01  -6.6741128623402202e-02  -8.8797992863815220e-02  8.8903070104189719e-01  -4.5543549227929397e-01  1.2943953870424927e+00  -7.6991373276718245e-01  1.3244097640948633e+00  1.0668718850471413e+00  -9.0602780824440965e-01  1.2646153920567800e+00  2.3486450005147169e-01  9.2360064297581601e-01  7.2062726263385191e-01  6.6536265888771717e-01  -8.8809367995529118e-02  2.1626673621513229e-01  1.5559344152258590e+00  1.0601945401919255e+00  8.5245182883775283e-01  8.3934759775688515e-03  1.0872595109118091e+00  4.2419348256473477e-02  1.4177468640543753e+00  1.4519830841318355e+00  1.0794624998755520e+00  -5.9509392100004366e-01  1.3977781040300736e+00  1.2802930957935961e+00  2.0074095937321287e-01  -1.4458529440638633e-02  1.2326072069638405e+00  1.3789477697847354e+00  -6.8899550369390894e-01  2.5535386880071669e-02  -6.2082064744383769e-01  6.2059293809023397e-01  7.3639664961535756e-01  1.3713197862301412e+00  -4.3687864428410861e-01  -2.7111296154770781e-01  1.4238744952557965e+00  1.5490579667519364e+00  7.5893562599020159e-01  4.4845238441301410e-01  2.1526225339221730e-02  4.7361358785069430e-01  3.2574515893942585e-01  -2.2221989541208897e-01  1.6018027316943959e-01  -3.9198794513027074e-01  -2.9024718108363529e-01  -1.1029351452281675e+00  3.6936917698091187e-01  -2.1430165585725836e-01  -1.1157376501362160e+00  5.0912657077751977e-01  -2.1417825007041014e-01  -2.1319443112136444e-01  1.1809077068944267e+00  1.5311732198503090e+00  1.5379812554692862e+00  1.3864163077742291e+00  7.4458410663893693e-01  6.8354574945734148e-01  1.1711797303982108e+00  2.3823917042002019e-01  1.3963065149669889e+00  -5.2984927489870537e-01  1.0968406187921251e+00  -1.5328302747280106e-02  1.4880437990534165e+00  1.0918329643824951e+00  1.5861533449303537e-03  -6.1960978617853446e-01  -9.3640639411110294e-01  -7.9360757983146180e-01  -7.0160312604770203e-01  1.1828945410201104e+00  7.3413252280171160e-01  -4.9213298644403625e-01  -9.2182002285240638e-01  -1.1133676255133358e+00  -1.1098400467666951e+00  4.6165016610478404e-01  1.3908002790563065e+00  1.3974441413154366e+00  8.4412932855526213e-01  -9.2708453208737396e-01  1.5494695315770128e+00  4.9657090519684227e-01  1.2477095517985544e+00  3.7363619211125004e-01  3.5759440365135198e-01  3.0461224713339952e-01  1.3133366725672146e+00  -4.3089067934927056e-01  -7.2830745444128975e-01  1.2516415277850388e+00  1.2244740252825810e+00  -5.8261520461522076e-01  -4.4961164889149546e-01  -5.1332679816371363e-01  1.9770535913816625e-01  -4.5541889522763848e-02  -1.1476325875977519e-01  3.5316185884188799e-02  6.5717854199775116e-01  -1.1092252509841376e+00  9.4124503295183304e-01  3.2457244533574559e-01  8.3812131416246882e-02  9.4639126208457380e-01  -2.1139365313297379e-01  -8.8944549975480391e-01  8.1973717068890328e-01  7.4548971755696092e-01  3.0301187918763139e-01  1.0101956389790199e+00  2.1350796437616607e-01  1.3425552718761329e+00  -1.6406142087828124e-01  -1.7849667615165010e-01  1.6608807660420821e+00  1.2275820669938654e-01  1.6644297395252809e+00  4.1336994511170133e-01  1.6571852446125781e+00  9.9928774064197423e-01  1.2687035377168001e+00  -7.0936837686539012e-01  -5.6047879481501606e-01  6.9789087112747938e-01  7.1402671373089277e-01  1.6643204020680253e+00  -1.1201239803163086e+00  -9.2924286529461264e-01  3.3337635921536019e-01  4.6520619318891887e-01  -1.1292856393788151e+00  -7.7694073597674318e-01  -3.4545506263359904e-01  5.6467029595152718e-01  6.0605643723729608e-01  1.6654667037630890e+00  1.6644467332313402e+00  -7.9160622545358772e-01  1.3548943048510592e-01  4.3667708238765007e-01  -6.3804168724273025e-01  4.2604313680188771e-01  1.6628065931548257e+00  1.2483297753936871e+00  5.5159448365939912e-01  4.9094060030464048e-01  1.4899672920112759e+00  -9.8049622518288448e-01  -9.5902643254729836e-01  -1.1114733123575791e+00  1.4160192275658128e+00  2.1363306070068200e-01  1.0918520395853391e+00  1.6668644890963806e+00  -2.5662855887379509e-03  -3.8517173839938190e-01  1.5048207700923799e+00  1.3779059757118071e+00  -2.0235066647638117e-01  6.7687369436309452e-01  6.1677537730345629e-02  1.5508334285592213e+00  1.6609415551195894e+00  2.6113561460855828e-01  -8.2802119633103566e-01  -7.3642104607698211e-01  1.2378094652703151e+00  -1.1153988631343401e+00  6.0052755640956368e-01  3.9420383819960403e-01  -3.8169838253574634e-01  1.5656455707435306e+00  1.5533922742941053e+00  6.2867283689212006e-01  -5.5584057942590348e-01  -6.3098593767296696e-01  5.8425029426950248e-01  -7.4741893889580946e-01  1.0333583113692508e+00  -3.2265618335917201e-01  1.5089608503601186e+00  5.4198179070294639e-01  -6.6506377806791706e-01  -6.3069567675043781e-01  -4.0512671529579623e-02  1.5928522519057751e+00  -5.4820784761441832e-01  7.0571405824543421e-01  -1.1224966094290603e+00  1.8456935073487768e-01  -1.0126363867829580e+00  1.1629008124593863e+00  -5.1195616954061329e-01  -9.7952925967116877e-01  4.4629683102786011e-01  1.6663830413523937e+00  1.3157271436960086e-01  5.2609571326177951e-01  1.4087689757401378e+00  -8.6623055158341888e-01  -7.3078088155241039e-01  -3.9392618505566490e-01  1.0562545127230591e+00  2.9581577586178293e-01  1.5901532073833380e+00  1.5779594823054124e+00  -4.0777447615157708e-01  -1.1167778569483797e+00  1.4550522438849529e+00  5.8505400757919845e-01  -4.0679114082299311e-01  -7.6612982193283874e-01  5.7488876366966013e-01  3.9996955518195376e-01  9.6774462317980359e-01  -1.1371682260399070e+00  -2.5042158168280086e-02  1.6085769642023859e+00  8.5574650824810905e-01  -9.5088851801022745e-01  5.4116758227941508e-01  4.9760706754610212e-01  -1.1188252294009089e+00  -2.9163915495333770e-01  -4.5483867816609881e-02  -9.7144917002790065e-01  -9.6236522483924758e-01  1.3609334854003470e+00  -1.1342699288538209e+00  -1.0177336230552545e+00  1.3012813005309758e+00  -5.7666733392230252e-01  1.4645504184531366e+00  5.6919630638532903e-01  7.3569012980682635e-01  -9.4547004723455141e-01  6.2758529216699643e-01  -3.4172920892895181e-01  -4.7539615893537979e-01  2.6442112658177225e-01  9.2099639210432505e-01  1.3748524943119504e+00  5.7874140877716951e-01  3.4308057777829704e-01  1.6650750670193988e+00  1.6653357319640036e+00  5.5823525345668115e-03  -4.9184114788543115e-01  1.1535732004786454e+00  -1.0296264906924784e+00  1.6097459663973364e+00  -3.7571361708447903e-01  1.8759557947918509e-01  -1.1376597953145515e+00  1.5043574632264904e+00  -4.5142826825370541e-01  -7.2156783907782363e-01  5.7888183977949603e-01  1.6676272831877625e+00  1.6673845482493703e+00  1.4146809202186812e+00  1.0155846025994013e+00  9.2908251311777046e-01  6.4621262342229507e-02  1.2389861405796856e+00  -3.7881702896322728e-01  1.1644506625450011e+00  1.6099104359811798e+00  -9.9055905001640299e-01  1.3272705196203682e+00  1.2720030059861747e+00  -1.8799471596105061e-01  -1.0080095807393432e+00  1.2769466165643570e+00  9.0285776448463029e-01  4.0018152153737047e-01  1.0814368982724678e+00  1.0047056304182034e-01  6.7634546371817494e-01  1.4284529452894728e+00  -4.6098345915246325e-01  4.3