<?xml version="1.0"?>
<VTKFile type="UnstructuredGrid"  version="0.1"  >
<UnstructuredGrid>
<Piece  NumberOfPoints="2730" NumberOfCells="5218">
<Points>
<DataArray  type="Float64"  NumberOfComponents="3"  format="ascii">-0.5 -0.1 0  -0.25 -0.1 0  0.25 -0.1 0  0.5 -0.1 0  0.5 0.1 0  0.25 0.1 0  -0.25 0.1 0  -0.5 0.1 0  -0.49 -0.1 0  -0.48 -0.1 0  -0.47 -0.1 0  -0.4600000000000001 -0.1 0  -0.4500000000000001 -0.1 0  -0.4400000000000001 -0.1 0  -0.4300000000000002 -0.1 0  -0.4200000000000002 -0.1 0  -0.4100000000000002 -0.1 0  -0.4000000000000002 -0.1 0  -0.3900000000000002 -0.1 0  -0.3800000000000002 -0.1 0  -0.3700000000000001 -0.1 0  -0.3600000000000001 -0.1 0  -0.3500000000000001 -0.1 0  -0.3400000000000001 -0.1 0  -0.3300000000000001 -0.1 0  -0.3200000000000001 -0.1 0  -0.3100000000000001 -0.1 0  -0.3 -0.1 0  -0.29 -0.1 0  -0.28 -0.1 0  -0.27 -0.1 0  -0.26 -0.1 0  -0.2400000000000277 -0.1 0  -0.2300000000000555 -0.1 0  -0.2200000000000832 -0.1 0  -0.210000000000111 -0.1 0  -0.2000000000001387 -0.1 0  -0.1900000000001664 -0.1 0  -0.1800000000001942 -0.1 0  -0.1700000000002219 -0.1 0  -0.1600000000002497 -0.1 0  -0.1500000000002774 -0.1 0  -0.1400000000003052 -0.1 0  -0.1300000000003329 -0.1 0  -0.1200000000003606 -0.1 0  -0.1100000000003884 -0.1 0  -0.1000000000004161 -0.1 0  -0.09000000000044384 -0.1 0  -0.08000000000047156 -0.1 0  -0.0700000000004993 -0.1 0  -0.06000000000052705 -0.1 0  -0.0500000000005548 -0.1 0  -0.04000000000058251 -0.1 0  -0.03000000000061029 -0.1 0  -0.02000000000063804 -0.1 0  -0.01000000000066575 -0.1 0  -6.880607195114408e-13 -0.1 0  0.009999999999334319 -0.1 0  0.01999999999936203 -0.1 0  0.02999999999938974 -0.1 0  0.0399999999994175 -0.1 0  0.04999999999944521 -0.1 0  0.05999999999947297 -0.1 0  0.06999999999950068 -0.1 0  0.07999999999952839 -0.1 0  0.08999999999955621 -0.1 0  0.09999999999958392 -0.1 0  0.1099999999996117 -0.1 0  0.1199999999996394 -0.1 0  0.1299999999996671 -0.1 0  0.1399999999996949 -0.1 0  0.1499999999997226 -0.1 0  0.1599999999997503 -0.1 0  0.1699999999997781 -0.1 0  0.1799999999998058 -0.1 0  0.1899999999998335 -0.1 0  0.1999999999998613 -0.1 0  0.209999999999889 -0.1 0  0.2199999999999168 -0.1 0  0.2299999999999445 -0.1 0  0.2399999999999722 -0.1 0  0.26 -0.1 0  0.27 -0.1 0  0.28 -0.1 0  0.2899999999999999 -0.1 0  0.2999999999999999 -0.1 0  0.3099999999999999 -0.1 0  0.3199999999999998 -0.1 0  0.3299999999999998 -0.1 0  0.3399999999999998 -0.1 0  0.3499999999999998 -0.1 0  0.3599999999999998 -0.1 0  0.3699999999999998 -0.1 0  0.3799999999999999 -0.1 0  0.3899999999999999 -0.1 0  0.3999999999999999 -0.1 0  0.4099999999999999 -0.1 0  0.4199999999999999 -0.1 0  0.4299999999999999 -0.1 0  0.4399999999999999 -0.1 0  0.45 -0.1 0  0.46 -0.1 0  0.47 -0.1 0  0.48 -0.1 0  0.49 -0.1 0  0.5 -0.09000000000002303 0  0.5 -0.08000000000004391 0  0.5 -0.07000000000006369 0  0.5 -0.06000000000009215 0  0.5 -0.05000000000012061 0  0.5 -0.04000000000014908 0  0.5 -0.03000000000017754 0  0.5 -0.0200000000002114 0  0.5 -0.01000000000023986 0  0.5 -2.655931030659531e-13 0  0.5 0.00999999999975798 0  0.5 0.01999999999978645 0  0.5 0.02999999999981545 0  0.5 0.03999999999983792 0  0.5 0.04999999999986582 0  0.5 0.05999999999989369 0  0.5 0.06999999999991621 0  0.5 0.07999999999994523 0  0.5 0.08999999999997532 0  0.49 0.1 0  0.48 0.1 0  0.47 0.1 0  0.4600000000000001 0.1 0  0.4500000000000001 0.1 0  0.4400000000000001 0.1 0  0.4300000000000002 0.1 0  0.4200000000000002 0.1 0  0.4100000000000002 0.1 0  0.4000000000000002 0.1 0  0.3900000000000002 0.1 0  0.3800000000000002 0.1 0  0.3700000000000001 0.1 0  0.3600000000000001 0.1 0  0.3500000000000001 0.1 0  0.3400000000000001 0.1 0  0.3300000000000001 0.1 0  0.3200000000000001 0.1 0  0.3100000000000001 0.1 0  0.3 0.1 0  0.29 0.1 0  0.28 0.1 0  0.27 0.1 0  0.26 0.1 0  0.2400000000000277 0.1 0  0.2300000000000555 0.1 0  0.2200000000000832 0.1 0  0.210000000000111 0.1 0  0.2000000000001387 0.1 0  0.1900000000001664 0.1 0  0.1800000000001942 0.1 0  0.1700000000002219 0.1 0  0.1600000000002497 0.1 0  0.1500000000002774 0.1 0  0.1400000000003052 0.1 0  0.1300000000003329 0.1 0  0.1200000000003606 0.1 0  0.1100000000003884 0.1 0  0.1000000000004161 0.1 0  0.09000000000044384 0.1 0  0.08000000000047156 0.1 0  0.0700000000004993 0.1 0  0.06000000000052705 0.1 0  0.0500000000005548 0.1 0  0.04000000000058251 0.1 0  0.03000000000061029 0.1 0  0.02000000000063804 0.1 0  0.01000000000066575 0.1 0  6.880607195114408e-13 0.1 0  -0.009999999999334319 0.1 0  -0.01999999999936203 0.1 0  -0.02999999999938974 0.1 0  -0.0399999999994175 0.1 0  -0.04999999999944521 0.1 0  -0.05999999999947297 0.1 0  -0.06999999999950068 0.1 0  -0.07999999999952839 0.1 0  -0.08999999999955621 0.1 0  -0.09999999999958392 0.1 0  -0.1099999999996117 0.1 0  -0.1199999999996394 0.1 0  -0.1299999999996671 0.1 0  -0.1399999999996949 0.1 0  -0.1499999999997226 0.1 0  -0.1599999999997503 0.1 0  -0.1699999999997781 0.1 0  -0.1799999999998058 0.1 0  -0.1899999999998335 0.1 0  -0.1999999999998613 0.1 0  -0.209999999999889 0.1 0  -0.2199999999999168 0.1 0  -0.2299999999999445 0.1 0  -0.2399999999999722 0.1 0  -0.26 0.1 0  -0.27 0.1 0  -0.28 0.1 0  -0.2899999999999999 0.1 0  -0.2999999999999999 0.1 0  -0.3099999999999999 0.1 0  -0.3199999999999998 0.1 0  -0.3299999999999998 0.1 0  -0.3399999999999998 0.1 0  -0.3499999999999998 0.1 0  -0.3599999999999998 0.1 0  -0.3699999999999998 0.1 0  -0.3799999999999999 0.1 0  -0.3899999999999999 0.1 0  -0.3999999999999999 0.1 0  -0.4099999999999999 0.1 0  -0.4199999999999999 0.1 0  -0.4299999999999999 0.1 0  -0.4399999999999999 0.1 0  -0.45 0.1 0  -0.46 0.1 0  -0.47 0.1 0  -0.48 0.1 0  -0.49 0.1 0  -0.5 0.09000000000002303 0  -0.5 0.08000000000004391 0  -0.5 0.07000000000006369 0  -0.5 0.06000000000009215 0  -0.5 0.05000000000012061 0  -0.5 0.04000000000014908 0  -0.5 0.03000000000017754 0  -0.5 0.0200000000002114 0  -0.5 0.01000000000023986 0  -0.5 2.655931030659531e-13 0  -0.5 -0.00999999999975798 0  -0.5 -0.01999999999978645 0  -0.5 -0.02999999999981545 0  -0.5 -0.03999999999983792 0  -0.5 -0.04999999999986582 0  -0.5 -0.05999999999989369 0  -0.5 -0.06999999999991621 0  -0.5 -0.07999999999994523 0  -0.5 -0.08999999999997532 0  -0.25 0.09000000000002303 0  -0.25 0.08000000000004391 0  -0.25 0.07000000000006369 0  -0.25 0.06000000000009215 0  -0.25 0.05000000000012061 0  -0.25 0.04000000000014908 0  -0.25 0.03000000000017754 0  -0.25 0.0200000000002114 0  -0.25 0.01000000000023986 0  -0.25 2.655931030659531e-13 0  -0.25 -0.00999999999975798 0  -0.25 -0.01999999999978645 0  -0.25 -0.02999999999981545 0  -0.25 -0.03999999999983792 0  -0.25 -0.04999999999986582 0  -0.25 -0.05999999999989369 0  -0.25 -0.06999999999991621 0  -0.25 -0.07999999999994523 0  -0.25 -0.08999999999997532 0  0.25 0.09000000000002303 0  0.25 0.08000000000004391 0  0.25 0.07000000000006369 0  0.25 0.06000000000009215 0  0.25 0.05000000000012061 0  0.25 0.04000000000014908 0  0.25 0.03000000000017754 0  0.25 0.0200000000002114 0  0.25 0.01000000000023986 0  0.25 2.655931030659531e-13 0  0.25 -0.00999999999975798 0  0.25 -0.01999999999978645 0  0.25 -0.02999999999981545 0  0.25 -0.03999999999983792 0  0.25 -0.04999999999986582 0  0.25 -0.05999999999989369 0  0.25 -0.06999999999991621 0  0.25 -0.07999999999994523 0  0.25 -0.08999999999997532 0  -0.3850000000000003 -2.08166817117213e-17 0  -0.3217478072742469 0.03007626579408589 0  -0.3302092938139704 -0.03499011159768359 0  -0.4366935483871021 0.036693548387094 0  -0.4350297517421554 -0.03560429865713959 0  -0.3700323317384431 0.0494779391693463 0  -0.3778518540075231 -0.0496041553011964 0  -0.2949193640910946 -0.007649163120994062 0  -0.2930521137561938 -0.05694788624381432 0  -0.4583731736448897 -0.001215319834539247 0  -0.2913947207500996 0.05860527924989712 0  -0.4058579199933758 0.06268102441448029 0  -0.3459760841140711 -6.780346038333065e-06 0  -0.4646153994063984 0.06100234437856374 0  -0.4640054291352568 -0.06321884865692481 0  -0.3348335884184006 0.06363838236202049 0  -0.421356328333676 0.003541006712621568 0  -0.4120119114964419 -0.06356736075056821 0  -0.3471413390599406 -0.06535290311494767 0  -0.2845778682310051 0.02495476001244536 0  -0.4036347569859151 -0.02957578179079991 0  -0.4008038297516275 0.02912394953576058 0  -0.4684464750612591 0.03012383645431143 0  -0.4680517012023024 -0.03010903590294818 0  -0.3590097397730768 -0.02683727700402486 0  -0.433770700672056 0.07049211514509394 0  -0.3183899248882524 -0.07132030615315052 0  -0.2786322459778085 -0.03158677644556719 0  -0.3486837543859873 0.02771664936262214 0  -0.3821065399865956 0.07272535841062555 0  -0.4376032469332309 -0.07379314933767983 0  -0.3196320204582093 0.002595122969680506 0  -0.3880668591275516 -0.07396612294530693 0  -0.3742378196480034 0.02350060963641981 0  -0.3047151843601849 -0.03117523435393533 0  -0.3121330384030688 0.07485353556697853 0  -0.2752826937641819 -0.07336098674719331 0  -0.3571666671737028 0.07538621545144265 0  -0.2742213809778471 0.07514005730299225 0  -0.2747898059150209 0.00492397814091739 0  -0.437923130018529 -0.01418843422685659 0  -0.3134057994256593 0.04985811985167827 0  -0.2727715686081871 0.0454393012412595 0  -0.3816362970490225 -0.02274608622601491 0  -0.3648615044101529 -0.07875302035426339 0  -0.4408610826074181 0.01462565879120544 0  -0.4773683522588593 0.01085151015484962 0  -0.2982306820441021 -0.07828377112297646 0  -0.2722508120310425 -0.05134182107518803 0  -0.4781799624717576 0.07811710671504565 0  -0.4782710545244382 -0.07824050944143322 0  -0.4779740084229234 -0.0112266819954318 0  -0.3022133220633222 0.01962797382460943 0  -0.3162722290862882 -0.04972488152854707 0  -0.3909157978710001 0.04714581587945635 0  -0.4783356259668664 0.04772111364468869 0  -0.4787470645745416 -0.04866862524229203 0  -0.4180150985993636 0.03927071917149167 0  -0.4152578092014954 0.0804870785508901 0  -0.3489659630856133 -0.0456212538077103 0  -0.33112725123118 -0.0152079172306502 0  -0.3635240430342228 -0.00532618303806893
[...]
<PointData  Scalars="f_791-1"> 
<DataArray  type="Float64"  Name="f_791-1"  format="ascii">-1.1613776788960209e-01  -4.1348031690301629e-01  2.0463330262605681e-01  -1.1613776788960209e-01  -1.1613776788960209e-01  2.0463330262605681e-01  -4.1348031690301629e-01  -1.1613776788960209e-01  -1.3374712989901955e-01  -1.5125277073238480e-01  -1.6860400865128261e-01  -1.8574145116105878e-01  -2.0260885057198594e-01  -2.1915932662239318e-01  -2.3533173038075916e-01  -2.5107931569220993e-01  -2.6635420778082441e-01  -2.8109567491483828e-01  -2.9528199656089332e-01  -3.0884162982541269e-01  -3.2174441627750328e-01  -3.3395645348204633e-01  -3.4543104786913365e-01  -3.5614259378760665e-01  -3.6604385848145327e-01  -3.7511981099932085e-01  -3.8331177144165268e-01  -3.9064000095274037e-01  -3.9706789293289246e-01  -4.0258496430658247e-01  -4.0714718921488324e-01  -4.1077345269999710e-01  -4.0983587993006509e-01  -4.0522039771537322e-01  -3.9966559855021194e-01  -3.9309434718612279e-01  -3.8558070744601869e-01  -3.7713145852645119e-01  -3.6777496636015289e-01  -3.5757156776236720e-01  -3.4652891954195431e-01  -3.3468540119077855e-01  -3.2204859482859077e-01  -3.0869676673793423e-01  -2.9467074288413686e-01  -2.8001920652038204e-01  -2.6478619032494605e-01  -2.4900633103814060e-01  -2.3273918522658071e-01  -2.1605540620046057e-01  -1.9900149215971705e-01  -1.8162789401892182e-01  -1.6400706107522314e-01  -1.4618602953751950e-01  -1.2822998263334096e-01  -1.1020155513437953e-01  -9.2160747505478022e-02  -7.4166699971767655e-02  -5.6284064462513987e-02  -3.8565201871067295e-02  -2.1073553167149869e-02  -3.8704344919813062e-03  1.2983900820617188e-02  2.9430684625421959e-02  4.5430254205495207e-02  6.0919027798756832e-02  7.5841783367626356e-02  9.0151629972337222e-02  1.0379751722986624e-01  1.1674364742163187e-01  1.2894285431725436e-01  1.4035199740579299e-01  1.5094407234700105e-01  1.6066912698512675e-01  1.6950770923258576e-01  1.7744361939659820e-01  1.8442482662211965e-01  1.9043532185898854e-01  1.9548746147276910e-01  1.9946394191649014e-01  2.0259229311005394e-01  2.0041007475098913e-01  1.9527727523210581e-01  1.8924030300036151e-01  1.8227247986704859e-01  1.7441186430308123e-01  1.6568592015124645e-01  1.5611328251372725e-01  1.4573716637359574e-01  1.3457601928086005e-01  1.2265694521969162e-01  1.1002852708812340e-01  9.6724904085155092e-02  8.2800069386147937e-02  6.8282653778262842e-02  5.3207170409328680e-02  3.7645615455948432e-02  2.1640731986568677e-02  5.2406363979179589e-03  -1.1509234840724594e-02  -2.8543614838356927e-02  -4.5814935580801346e-02  -6.3264203683260051e-02  -8.0839308906646451e-02  -9.8481708308481658e-02  -1.1613563607373593e-01  -1.1613582137142808e-01  -1.1613643774852678e-01  -1.1613731928140764e-01  -1.1613679236452318e-01  -1.1614015758670448e-01  -1.1613709700886064e-01  -1.1613712018196427e-01  -1.1613597845548757e-01  -1.1613832275916407e-01  -1.1613436732442493e-01  -1.1613450795237093e-01  -1.1613470543719627e-01  -1.1613853751453704e-01  -1.1613597454081824e-01  -1.1613756283720049e-01  -1.1613559679999567e-01  -1.1613499331984850e-01  -1.1613515178628675e-01  -9.8481708308481658e-02  -8.0839308906646451e-02  -6.3264203683260051e-02  -4.5814935580801346e-02  -2.8543614838356927e-02  -1.1509234840724594e-02  5.2406363979179589e-03  2.1640731986568677e-02  3.7645615455948432e-02  5.3207170409328680e-02  6.8282653778262842e-02  8.2800069386147937e-02  9.6724904085155092e-02  1.1002852708812340e-01  1.2265694521969162e-01  1.3457601928086005e-01  1.4573716637359574e-01  1.5611328251372725e-01  1.6568592015124645e-01  1.7441186430308123e-01  1.8227247986704859e-01  1.8924030300036151e-01  1.9527727523210581e-01  2.0041007475098913e-01  2.0259229311005394e-01  1.9946394191649014e-01  1.9548746147276910e-01  1.9043532185898854e-01  1.8442482662211965e-01  1.7744361939659820e-01  1.6950770923258576e-01  1.6066912698512675e-01  1.5094407234700105e-01  1.4035199740579299e-01  1.2894285431725436e-01  1.1674364742163187e-01  1.0379751722986624e-01  9.0151629972337222e-02  7.5841783367626356e-02  6.0919027798756832e-02  4.5430254205495207e-02  2.9430684625421959e-02  1.2983900820617188e-02  -3.8704344919813062e-03  -2.1073553167149869e-02  -3.8565201871067295e-02  -5.6284064462513987e-02  -7.4166699971767655e-02  -9.2160747505478022e-02  -1.1020155513437953e-01  -1.2822998263334096e-01  -1.4618602953751950e-01  -1.6400706107522314e-01  -1.8162789401892182e-01  -1.9900149215971705e-01  -2.1605540620046057e-01  -2.3273918522658071e-01  -2.4900633103814060e-01  -2.6478619032494605e-01  -2.8001920652038204e-01  -2.9467074288413686e-01  -3.0869676673793423e-01  -3.2204859482859077e-01  -3.3468540119077855e-01  -3.4652891954195431e-01  -3.5757156776236720e-01  -3.6777496636015289e-01  -3.7713145852645119e-01  -3.8558070744601869e-01  -3.9309434718612279e-01  -3.9966559855021194e-01  -4.0522039771537322e-01  -4.0983587993006509e-01  -4.1077345269999710e-01  -4.0714718921488324e-01  -4.0258496430658247e-01  -3.9706789293289246e-01  -3.9064000095274037e-01  -3.8331177144165268e-01  -3.7511981099932085e-01  -3.6604385848145327e-01  -3.5614259378760665e-01  -3.4543104786913365e-01  -3.3395645348204633e-01  -3.2174441627750328e-01  -3.0884162982541269e-01  -2.9528199656089332e-01  -2.8109567491483828e-01  -2.6635420778082441e-01  -2.5107931569220993e-01  -2.3533173038075916e-01  -2.1915932662239318e-01  -2.0260885057198594e-01  -1.8574145116105878e-01  -1.6860400865128261e-01  -1.5125277073238480e-01  -1.3374712989901955e-01  -1.1613515178628675e-01  -1.1613499331984850e-01  -1.1613559679999567e-01  -1.1613756283720049e-01  -1.1613597454081824e-01  -1.1613853751453704e-01  -1.1613470543719627e-01  -1.1613450795237093e-01  -1.1613436732442493e-01  -1.1613832275916407e-01  -1.1613597845548757e-01  -1.1613712018196427e-01  -1.1613709700886064e-01  -1.1614015758670448e-01  -1.1613679236452318e-01  -1.1613731928140764e-01  -1.1613643774852678e-01  -1.1613582137142808e-01  -1.1613563607373593e-01  -4.1344197628386586e-01  -4.1339839891514096e-01  -4.1349448673104133e-01  -4.1345877587976426e-01  -4.1351037248294042e-01  -4.1343267205215589e-01  -4.1342134047173901e-01  -4.1343837570096120e-01  -4.1349424328254974e-01  -4.1342418926076074e-01  -4.1343499406723455e-01  -4.1347422782736354e-01  -4.1342219142885717e-01  -4.1344749186287089e-01  -4.1348068978745683e-01  -4.1346261685715469e-01  -4.1346330525351588e-01  -4.1342434843409309e-01  -4.1343386486796307e-01  2.0460371623362736e-01  2.0455586887532812e-01  2.0463676431060035e-01  2.0463149177481135e-01  2.0463586673030160e-01  2.0459693410720747e-01  2.0456977166687781e-01  2.0458725108141734e-01  2.0464318625816602e-01  2.0458054896252736e-01  2.0458200524958267e-01  2.0465862404170387e-01  2.0456728008245323e-01  2.0459490589342866e-01  2.0463118740694833e-01  2.0462692748095945e-01  2.0465513255592646e-01  2.0456039675985699e-01  2.0460776456589277e-01  -3.0214597578866820e-01  -3.7356812716279231e-01  -3.6581790697384398e-01  -2.2454399456373653e-01  -2.2725221565960185e-01  -3.2173272338549808e-01  -3.1167139159037294e-01  -3.9397831829065943e-01  -3.9519950192022774e-01  -1.8849592658566391e-01  -3.9620856130501075e-01  -2.7252262708848429e-01  -3.4982234780416949e-01  -1.7785594030806098e-01  -1.7890986971002454e-01  -3.6131821242529366e-01  -2.4898086198935068e-01  -2.6330283759407064e-01  -3.4858512252638901e-01  -4.0015816404122140e-01  -2.7579901231891762e-01  -2.7993761396446049e-01  -1.7128450382070762e-01  -1.7196426155527983e-01  -3.3509894627277470e-01  -2.2928301638153892e-01  -3.7646480585978659e-01  -4.0324280527268702e-01  -3.4685049831587955e-01  -3.0603127951128029e-01  -2.2306605038431082e-01  -3.7541132191334214e-01  -2.9794106142409721e-01  -3.1634450804011732e-01  -3.8728709470707040e-01  -3.8164122198613848e-01  -4.0482380707063448e-01  -3.3727070318279995e-01  -4.0535270213614882e-01  -4.0505939639476096e-01  -2.2254716165881705e-01  -3.8061040921720746e-01  -4.0598479330785270e-01  -3.0666120334089325e-01  -3.2811291948430488e-01  -2.1773711461956108e-01  -1.5582958313430362e-01  -3.9182463160529657e-01  -4.0622294527771324e-01  -1.5441855121090201e-01  -1.5426180873440393e-01  -1.5479081424217053e-01  -3.8911805737154886e-01  -3.7825470507274722e-01  -2.9401318554689360e-01  -1.5415654847440047e-01  -1.5343082718562620e-01  -2.5416249447153499e-01  -2.5838954770983946e-01  -3.4656049408426853e-01  -3.6499739171726603e-01  -3.2974811075504329e-01  -2.8272619912376723e-01  -2.7515823390276939e-01  -1.9901685925709287e-01  -3.5998567212106503e-01  -2.5343765777135557e-01  -2.4185692371843373e-01  -3.8812320586886057e-01  -1.9470645829180686e-01  -1.9539976610812065e-01  -3.6078083489730389e-01  -1.9819225470246010e-01  -3.9621501915602131e-01  -3.6181326915958328e-01  -4.0811340937197671e-01  -2.5428553113753100e-01  -2.5071231169919522e-01  -3.6637448343019152e-01  -3.4492328662387606e-01  -3.8144375524531121e-01  -2.2797283994104556e-01  -2.8312342212132557e-01  -3.6224678748675215e-01  -2.7441789582134046e-01  -3.3616858014722684e-01  -1.9510489750197313e-01  -3.2916127842047965e-01  -2.3440738099660527e-01  -4.0823756630406260e-01  -2.7778356790837488e-01  -2.0266370806511305e-01  -4.0844270695285401e-01  -2.0912593925134462e-01  -1.4431330894148961e-01  -2.9701375321851553e-01  -3.9726662547577818e-01  -1.4429564683138316e-01  -1.8599688557881397e-01  -3.9607059160410418e-01  -3.4518636634969224e-01  -3.4768338378167751e-01  -3.2934370409845282e-01  -3.2180319728074208e-01  -1.4432145608335864e-01  -1.4440277394522957e-01  -3.2518202109623739e-01  -3.9604430463227891e-01  -3.5079475473954158e-01  -2.9756628000838503e-01  -3.3025495342015199e-01  -3.8182816787870960e-01  -2.0644780451148725e-01  -4.0905031216165755e-01  -2.2763192684477768e-01  -3.9845544009310613e-01  -4.0930177623700831e-01  -2.5053339723281015e-01  -3.5390014346788223e-01  -3.0056618821173819e-01  -3.9998576539871450e-01  -4.0955197329518328e-01  -1.7634568173416887e-01  -2.9332093342412408e-01  -3.1114034167716004e-01  -3.1773604032820935e-01  -2.9600255885575527e-01  -3.8574504495976336e-01  -2.0242209811878029e-01  -2.1383772666035206e-01  -4.0946144274268526e-01  -4.0947019676775348e-01  -2.5410314079970669e-01  -3.8680739210207071e-01  -2.2628986168431842e-01  -3.7418043690733022e-01  -3.0382531957845504e-01  -3.7662955706646922e-01  -4.0188790001850389e-01  -3.1276049855174054e-01  -2.9400291583719240e-01  -3.8704542114030971e-01  -3.6158993108378890e-01  -3.8820015724341767e-01  -2.7808695697455504e-01  -2.4025459733766624e-01  -3.6384214999138542e-01  -3.7760007036126059e-01  -3.9858091110881605e-01  -1.3906157056570850e-01  -3.6164038656535064e-01  -1.7260781664070554e-01  -3.1069350659694583e-01  -4.0222129027461112e-01  -1.3913522269875714e-01  -3.1700149075693890e-01  -2.8008249609427321e-01  -4.0981984289325729e-01  -4.0392660571528755e-01  -1.6866630302572860e-01  -3.9006960945340508e-01  -3.4293516113839084e-01  -3.7170796132944695e-01  -3.4738481371638996e-01  -3.7469988575760832e-01  -1.4013491720185334e-01  -1.3969897671630890e-01  -1.3855526290277456e-01  -1.7323609752257793e-01  -1.7889183056002647e-01  -4.0968519966654648e-01  -3.2255243860619648e-01  -3.8879071118477204e-01  -2.9371699879702617e-01  -3.7679574850530967e-01  -3.4014895532233258e-01  -3.4962889693635751e-01  -3.1118912951456318e-01  -2.0925811381554021e-01  -3.1812491328829962e-01  -1.7240598652314285e-01  -4.1021919512955113e-01  -3.6842920255213746e-01  -4.1014477491563206e-01  -2.2686408700651925e-01  -2.3691937064035878e-01  -1.7509040978863460e-01  -2.6460529317449422e-01  -4.0340047760388331e-01  -2.2572988073503769e-01  -2.3278462767397892e-01  -4.0079977279690499e-01  -2.6832455518487347e-01  -3.8428280348168220e-01  -2.7458183426524208e-01  -1.3397147125889897e-01  -2.1446145638582992e-01  -2.4299765296603179e-01  -2.7077358477094110e-01  -3.7429233643757687e-01  -4.0373077209094188e-01  -1.7326495678992862e-01  -4.0564278940093823e-01  -2.8677154982889264e-01  -4.0965365384665170e-01  -3.9480000581810704e-01  -3.5768049090872334e-01  -2.4309514233338594e-01  -3.4320178785109268e-01  -2.1140885764317052e-01  -4.0145206337306377e-01  -3.3644376536787290e-01  -1.9802425899667553e-01  -3.2793427978380973e-01  -2.6576731877094711e-01  -1.2975123590821278e-01  -1.2986100221598337e-01  -3.9347033599526693e-01  -3.9008426401534402e-01  -1.3398197269215478e-01  -2.9301127897121898e-01  -3.7466146319808025e-01  -2.4137970436374825e-01  -2.6004414505300438e-01  -1.6142389730867776e-01  -1.6166965565890895e-01  -2.5887625770400674e-01  -2.6655376350959153e-01  -3.3637717031811132e-01  -3.8220003985473477e-01  -2.1218445432563227e-01  -2.5058950382441819e-01  -1.3528138844839757e-01  -1.3302684537090814e-01  -4.1060014102175729e-01  -3.9427309466871419e-01  -1.9816961086208046e-01  -1.5779621343065520e-01  -2.6322366586650792e-01  -2.6694305125551715e-01  -3.5578764188853973e-01  -1.6070345329791952e-01  -4.0524027060832563e-01  -3.7347622992233226e-01  -4.0125642770246406e-01  -1.5719399440236714e-01  -2.8022692236171182e-01  -4.1081772817446721e-01  -3.3387160284370049e-01  -3.5985834513375703e-01  -3.6140998131758673e-01  -2.6582022035989616e-01  -3.8490689430016284e-01  -2.0618946371024058e-01  -4.0015036084017930e-01  -2.0099863297591297e-01  -2.4170747809735521e-01  -4.0528843011313387e-01  -2.1116775591376671e-01  -3.3552711103460242e-01  -2.6133110283089134e-01  -2.8635706415947554e-01  -2.9267322174649774e-01  -3.6144951624329208e-01  -3.3714517031028518e-01  -1.5577424514033783e-01  -2.4265623676291737e-01  -2.7045231842445983e-01  -3.5416527197731218e-01  -2.3877419897449789e-01  -3.5152307461715238e-01  -1.8396150944711051e-01  -1.7736865670646124e-01  -2.3990322144054946e-01  -3.9223680958636187e-01  -1.8778657775238883e-01  -2.0859032880884540e-01  -3.3850305857052870e-01  -3.5594346652335890e-01  -2.1640780772424448e-01  -1.9126603171880191e-01  -3.9667863454268198e-01  -3.5284276707694645e-01  -3.9344178517112988e-01  -2.9763537623783687e-01  -2.8450175053500298e-01  -1.9261284964936279e-01  -3.8385480250398685e-01  -3.7385643237062155e-01  -1.8278507348221223e-01  -1.5726872673771383e-01  -2.8187867431764591e-01  -3.1560966407476770e-01  -3.5317908838216566e-01  -3.1308560821547154e-01  -3.2730721598716461e-01  -3.7065956867898558e-01  -3.4196166474187012e-01  -3.8126280988059086e-01  -3.7508698168689253e-01  -4.1108153223778376e-01  -3.2322647376023994e-01  -3.7012695355442710e-01  -4.1139767622137535e-01  -3.0944653140764966e-01  -3.7013287776138981e-01  -3.7008387887056926e-01  -2.2462506901930965e-01  -1.6112582910154258e-01  -1.5962583872553748e-01  -1.8989711899560724e-01  -2.8354820077311460e-01  -2.9063507255689003e-01  -2.2612337663351706e-01  -3.3521623667693945e-01  -1.8798992760546637e-01  -3.8891876915537177e-01  -2.3736219168632855e-01  -3.5596223203061539e-01  -1.7015075255587944e-01  -2.3808632947112351e-01  -3.5468645749695726e-01  -3.9339799273100590e-01  -4.0630121515983791e-01  -4.0111244438195365e-01  -3.9723897019044263e-01  -2.2436589836349918e-01  -2.8478175082802198e-01  -3.8690503734607262e-01  -4.0581933390846370e-01  -4.1131912320940645e-01  -4.1124351367866452e-01  -3.1426664584869907e-01  -1.8903740310394793e-01  -1.8781472751506539e-01  -2.7151541431295051e-01  -4.0600624273787100e-01  -1.5714799894248713e-01  -3.1073959351257124e-01  -2.1393715465290192e-01  -3.2282683116061056e-01  -3.2437823469321853e-01  -3.2929165453172132e-01  -2.0292402289948236e-01  -3.8351304531873320e-01  -3.9840124001538352e-01  -2.1328515155803068e-01  -2.1772997142911787e-01  -3.9158068619312641e-01  -3.8455986286081034e-01  -3.8802623083399340e-01  -3.3875506004656408e-01  -3.5825288905053060e-01  -3.6327833713894470e-01  -3.5206737005030236e-01  -2.9356633397947846e-01  -4.1120926963023735e-01  -2.5907524648446578e-01  -3.2743101548916420e-01  -3.4823403336272751e-01  -2.5832552156709548e-01  -3.6995344750640491e-01  -4.0468633688699635e-01  -2.7449263768889065e-01  -2.8339767790968590e-01  -3.2943225403721627e-01  -2.4969121498010000e-01  -3.3736228589669970e-01  -1.9774973005738777e-01  -3.6673049565578852e-01  -3.6773891250749297e-01  -1.3072162012390237e-01  -3.4506801025755218e-01  -1.2974090101863009e-01  -3.1899995696238742e-01  -1.3165811382898529e-01  -2.5121059586588429e-01  -2.1053161900659109e-01  -3.9754548922935840e-01  -3.9047913148569074e-01  -2.8894189966329487e-01  -2.8710322741240968e-01  -1.2974610843766762e-01  -4.1146633610520744e-01  -4.0605330762911274e-01  -3.2662419943259990e-01  -3.1388363270787012e-01  -4.1168792825367945e-01  -4.0038820302067479e-01  -3.7847972600213547e-01  -3.0363522893200712e-01  -2.9920250151214217e-01  -1.2955249733245397e-01  -1.2983814633277244e-01  -4.0098540704229263e-01  -3.4398821100727989e-01  -3.1671806413961096e-01  -3.9430808967280567e-01  -3.1775905939838867e-01  -1.3015368018721263e-01  -2.1385457555952472e-01  -3.0500320807031145e-01  -3.1129617034416057e-01  -1.6968552674998952e-01  -4.0768769249236175e-01  -4.0702503658498890e-01  -4.1127343910957315e-01  -1.8430803666651976e-01  -3.3736761465122678e-01  -2.3804769852826485e-01  -1.2909432660813344e-01  -3.5502217053182977e-01  -3.8085448300698455e-01  -1.6665972614153982e-01  -1.9144737075696786e-01  -3.6932434493505040e-01  -2.9133333023900887e-01  -3.5001300684583542e-01  -1.5678506086562119e-01  -1.3071637913247558e-01  -3.3318705210153865e-01  -4.0243008769084221e-01  -3.9870670263307811e-01  -2.1553666446124534e-01  -4.1135461883489188e-01  -2.9979594060758619e-01  -3.2082933330365687e-01  -3.8062690235360946e-01  -1.5359308929971061e-01  -1.5622795894769495e-01  -2.9673264115764192e-01  -3.9022975176265340e-01  -3.9395901308185038e-01  -3.0158213276038959e-01  -3.9917097432913656e-01  -2.4643579297285220e-01  -3.7707082130927655e-01  -1.6573997877359617e-01  -3.0602212852079280e-01  -3.9554205908922868e-01  -3.9390895297024198e-01  -3.5785842097806425e-01  -1.4733096314371738e-01  -3.8983966075372944e-01  -2.8806277187468704e-01  -4.1152195658956175e-01  -3.3988131846462588e-01  -4.0865172955997259e-01  -2.2742528480045385e-01  -3.8794087888102269e-01  -4.0766830615694022e-01  -3.1576447782839118e-01  -1.2927796665260596e-01  -3.4430703955692199e-01  -3.0767923895306454e-01  -1.8568732707981539e-01  -4.0384762705938959e-01  -3.9845811022194577e-01  -3.8134557831817872e-01  -2.4318634625881211e-01  -3.3008344734282902e-01  -1.4792072686871882e-01  -1.5073647053228342e-01  -3.8217784127816667e-01  -4.1140233139445287e-01  -1.7676598238577726e-01  -3.0144910448606077e-01  -3.8212307474129847e-01  -3.9997283330309635e-01  -3.0253319440108267e-01  -3.2027107034439739e-01  -2.5546355526165476e-01  -4.1184735799751493e-01  -3.5670159944496832e-01  -1.4366914175961046e-01  -2.7003266761091355e-01  -4.0675701769296252e-01  -3.0610403498248334e-01  -3.1057679186712411e-01  -4.1144286621446730e-01  -3.7513841122554398e-01  -3.5822905762274498e-01  -4.0742193080428524e-01  -4.0713203899177863e-01  -1.9447355481807285e-01  -4.1178142593242123e-01  -4.0879489592791718e-01  -2.0493216042509066e-01  -3.9128177839335765e-01  -1.7487527407841641e-01  -3.0314527481296044e-01  -2.8456057863388939e-01  -4.0660774000021555e-01  -2.9682797650893383e-01  -3.7825377435444008e-01  -3.8598018466824280e-01  -3.3286741549241172e-01  -2.6167856547444496e-01  -1.9196542550618603e-01  -3.0213319966468771e-01  -3.2567966633518303e-01  -1.2964147682031021e-01  -1.2956872891349341e-01  -3.5435108633299239e-01  -3.8686981029005418e-01  -2.2880035103693050e-01  -4.0912227619540598e-01  -1.4336316913949482e-01  -3.8031565279647672e-01  -3.3960599044615059e-01  -4.1185228073526370e-01  -1.6674681775494452e-01  -3.8463783913600008e-01  -3.9804684516275324e-01  -3.0212742455500918e-01  -1.2897111340512829e-01  -1.2903759515671726e-01  -1.8456638685254170e-01  -2.4892306996817481e-01  -2.6059892754344188e-01  -3.4976550946516538e-01  -2.1537613231173486e-01  -3.8