<?xml version="1.0"?>
<VTKFile type="UnstructuredGrid"  version="0.1"  >
<UnstructuredGrid>
<Piece  NumberOfPoints="2730" NumberOfCells="5218">
<Points>
<DataArray  type="Float64"  NumberOfComponents="3"  format="ascii">-0.5 -0.1 0  -0.25 -0.1 0  0.25 -0.1 0  0.5 -0.1 0  0.5 0.1 0  0.25 0.1 0  -0.25 0.1 0  -0.5 0.1 0  -0.49 -0.1 0  -0.48 -0.1 0  -0.47 -0.1 0  -0.4600000000000001 -0.1 0  -0.4500000000000001 -0.1 0  -0.4400000000000001 -0.1 0  -0.4300000000000002 -0.1 0  -0.4200000000000002 -0.1 0  -0.4100000000000002 -0.1 0  -0.4000000000000002 -0.1 0  -0.3900000000000002 -0.1 0  -0.3800000000000002 -0.1 0  -0.3700000000000001 -0.1 0  -0.3600000000000001 -0.1 0  -0.3500000000000001 -0.1 0  -0.3400000000000001 -0.1 0  -0.3300000000000001 -0.1 0  -0.3200000000000001 -0.1 0  -0.3100000000000001 -0.1 0  -0.3 -0.1 0  -0.29 -0.1 0  -0.28 -0.1 0  -0.27 -0.1 0  -0.26 -0.1 0  -0.2400000000000277 -0.1 0  -0.2300000000000555 -0.1 0  -0.2200000000000832 -0.1 0  -0.210000000000111 -0.1 0  -0.2000000000001387 -0.1 0  -0.1900000000001664 -0.1 0  -0.1800000000001942 -0.1 0  -0.1700000000002219 -0.1 0  -0.1600000000002497 -0.1 0  -0.1500000000002774 -0.1 0  -0.1400000000003052 -0.1 0  -0.1300000000003329 -0.1 0  -0.1200000000003606 -0.1 0  -0.1100000000003884 -0.1 0  -0.1000000000004161 -0.1 0  -0.09000000000044384 -0.1 0  -0.08000000000047156 -0.1 0  -0.0700000000004993 -0.1 0  -0.06000000000052705 -0.1 0  -0.0500000000005548 -0.1 0  -0.04000000000058251 -0.1 0  -0.03000000000061029 -0.1 0  -0.02000000000063804 -0.1 0  -0.01000000000066575 -0.1 0  -6.880607195114408e-13 -0.1 0  0.009999999999334319 -0.1 0  0.01999999999936203 -0.1 0  0.02999999999938974 -0.1 0  0.0399999999994175 -0.1 0  0.04999999999944521 -0.1 0  0.05999999999947297 -0.1 0  0.06999999999950068 -0.1 0  0.07999999999952839 -0.1 0  0.08999999999955621 -0.1 0  0.09999999999958392 -0.1 0  0.1099999999996117 -0.1 0  0.1199999999996394 -0.1 0  0.1299999999996671 -0.1 0  0.1399999999996949 -0.1 0  0.1499999999997226 -0.1 0  0.1599999999997503 -0.1 0  0.1699999999997781 -0.1 0  0.1799999999998058 -0.1 0  0.1899999999998335 -0.1 0  0.1999999999998613 -0.1 0  0.209999999999889 -0.1 0  0.2199999999999168 -0.1 0  0.2299999999999445 -0.1 0  0.2399999999999722 -0.1 0  0.26 -0.1 0  0.27 -0.1 0  0.28 -0.1 0  0.2899999999999999 -0.1 0  0.2999999999999999 -0.1 0  0.3099999999999999 -0.1 0  0.3199999999999998 -0.1 0  0.3299999999999998 -0.1 0  0.3399999999999998 -0.1 0  0.3499999999999998 -0.1 0  0.3599999999999998 -0.1 0  0.3699999999999998 -0.1 0  0.3799999999999999 -0.1 0  0.3899999999999999 -0.1 0  0.3999999999999999 -0.1 0  0.4099999999999999 -0.1 0  0.4199999999999999 -0.1 0  0.4299999999999999 -0.1 0  0.4399999999999999 -0.1 0  0.45 -0.1 0  0.46 -0.1 0  0.47 -0.1 0  0.48 -0.1 0  0.49 -0.1 0  0.5 -0.09000000000002303 0  0.5 -0.08000000000004391 0  0.5 -0.07000000000006369 0  0.5 -0.06000000000009215 0  0.5 -0.05000000000012061 0  0.5 -0.04000000000014908 0  0.5 -0.03000000000017754 0  0.5 -0.0200000000002114 0  0.5 -0.01000000000023986 0  0.5 -2.655931030659531e-13 0  0.5 0.00999999999975798 0  0.5 0.01999999999978645 0  0.5 0.02999999999981545 0  0.5 0.03999999999983792 0  0.5 0.04999999999986582 0  0.5 0.05999999999989369 0  0.5 0.06999999999991621 0  0.5 0.07999999999994523 0  0.5 0.08999999999997532 0  0.49 0.1 0  0.48 0.1 0  0.47 0.1 0  0.4600000000000001 0.1 0  0.4500000000000001 0.1 0  0.4400000000000001 0.1 0  0.4300000000000002 0.1 0  0.4200000000000002 0.1 0  0.4100000000000002 0.1 0  0.4000000000000002 0.1 0  0.3900000000000002 0.1 0  0.3800000000000002 0.1 0  0.3700000000000001 0.1 0  0.3600000000000001 0.1 0  0.3500000000000001 0.1 0  0.3400000000000001 0.1 0  0.3300000000000001 0.1 0  0.3200000000000001 0.1 0  0.3100000000000001 0.1 0  0.3 0.1 0  0.29 0.1 0  0.28 0.1 0  0.27 0.1 0  0.26 0.1 0  0.2400000000000277 0.1 0  0.2300000000000555 0.1 0  0.2200000000000832 0.1 0  0.210000000000111 0.1 0  0.2000000000001387 0.1 0  0.1900000000001664 0.1 0  0.1800000000001942 0.1 0  0.1700000000002219 0.1 0  0.1600000000002497 0.1 0  0.1500000000002774 0.1 0  0.1400000000003052 0.1 0  0.1300000000003329 0.1 0  0.1200000000003606 0.1 0  0.1100000000003884 0.1 0  0.1000000000004161 0.1 0  0.09000000000044384 0.1 0  0.08000000000047156 0.1 0  0.0700000000004993 0.1 0  0.06000000000052705 0.1 0  0.0500000000005548 0.1 0  0.04000000000058251 0.1 0  0.03000000000061029 0.1 0  0.02000000000063804 0.1 0  0.01000000000066575 0.1 0  6.880607195114408e-13 0.1 0  -0.009999999999334319 0.1 0  -0.01999999999936203 0.1 0  -0.02999999999938974 0.1 0  -0.0399999999994175 0.1 0  -0.04999999999944521 0.1 0  -0.05999999999947297 0.1 0  -0.06999999999950068 0.1 0  -0.07999999999952839 0.1 0  -0.08999999999955621 0.1 0  -0.09999999999958392 0.1 0  -0.1099999999996117 0.1 0  -0.1199999999996394 0.1 0  -0.1299999999996671 0.1 0  -0.1399999999996949 0.1 0  -0.1499999999997226 0.1 0  -0.1599999999997503 0.1 0  -0.1699999999997781 0.1 0  -0.1799999999998058 0.1 0  -0.1899999999998335 0.1 0  -0.1999999999998613 0.1 0  -0.209999999999889 0.1 0  -0.2199999999999168 0.1 0  -0.2299999999999445 0.1 0  -0.2399999999999722 0.1 0  -0.26 0.1 0  -0.27 0.1 0  -0.28 0.1 0  -0.2899999999999999 0.1 0  -0.2999999999999999 0.1 0  -0.3099999999999999 0.1 0  -0.3199999999999998 0.1 0  -0.3299999999999998 0.1 0  -0.3399999999999998 0.1 0  -0.3499999999999998 0.1 0  -0.3599999999999998 0.1 0  -0.3699999999999998 0.1 0  -0.3799999999999999 0.1 0  -0.3899999999999999 0.1 0  -0.3999999999999999 0.1 0  -0.4099999999999999 0.1 0  -0.4199999999999999 0.1 0  -0.4299999999999999 0.1 0  -0.4399999999999999 0.1 0  -0.45 0.1 0  -0.46 0.1 0  -0.47 0.1 0  -0.48 0.1 0  -0.49 0.1 0  -0.5 0.09000000000002303 0  -0.5 0.08000000000004391 0  -0.5 0.07000000000006369 0  -0.5 0.06000000000009215 0  -0.5 0.05000000000012061 0  -0.5 0.04000000000014908 0  -0.5 0.03000000000017754 0  -0.5 0.0200000000002114 0  -0.5 0.01000000000023986 0  -0.5 2.655931030659531e-13 0  -0.5 -0.00999999999975798 0  -0.5 -0.01999999999978645 0  -0.5 -0.02999999999981545 0  -0.5 -0.03999999999983792 0  -0.5 -0.04999999999986582 0  -0.5 -0.05999999999989369 0  -0.5 -0.06999999999991621 0  -0.5 -0.07999999999994523 0  -0.5 -0.08999999999997532 0  -0.25 0.09000000000002303 0  -0.25 0.08000000000004391 0  -0.25 0.07000000000006369 0  -0.25 0.06000000000009215 0  -0.25 0.05000000000012061 0  -0.25 0.04000000000014908 0  -0.25 0.03000000000017754 0  -0.25 0.0200000000002114 0  -0.25 0.01000000000023986 0  -0.25 2.655931030659531e-13 0  -0.25 -0.00999999999975798 0  -0.25 -0.01999999999978645 0  -0.25 -0.02999999999981545 0  -0.25 -0.03999999999983792 0  -0.25 -0.04999999999986582 0  -0.25 -0.05999999999989369 0  -0.25 -0.06999999999991621 0  -0.25 -0.07999999999994523 0  -0.25 -0.08999999999997532 0  0.25 0.09000000000002303 0  0.25 0.08000000000004391 0  0.25 0.07000000000006369 0  0.25 0.06000000000009215 0  0.25 0.05000000000012061 0  0.25 0.04000000000014908 0  0.25 0.03000000000017754 0  0.25 0.0200000000002114 0  0.25 0.01000000000023986 0  0.25 2.655931030659531e-13 0  0.25 -0.00999999999975798 0  0.25 -0.01999999999978645 0  0.25 -0.02999999999981545 0  0.25 -0.03999999999983792 0  0.25 -0.04999999999986582 0  0.25 -0.05999999999989369 0  0.25 -0.06999999999991621 0  0.25 -0.07999999999994523 0  0.25 -0.08999999999997532 0  -0.3850000000000003 -2.08166817117213e-17 0  -0.3217478072742469 0.03007626579408589 0  -0.3302092938139704 -0.03499011159768359 0  -0.4366935483871021 0.036693548387094 0  -0.4350297517421554 -0.03560429865713959 0  -0.3700323317384431 0.0494779391693463 0  -0.3778518540075231 -0.0496041553011964 0  -0.2949193640910946 -0.007649163120994062 0  -0.2930521137561938 -0.05694788624381432 0  -0.4583731736448897 -0.001215319834539247 0  -0.2913947207500996 0.05860527924989712 0  -0.4058579199933758 0.06268102441448029 0  -0.3459760841140711 -6.780346038333065e-06 0  -0.4646153994063984 0.06100234437856374 0  -0.4640054291352568 -0.06321884865692481 0  -0.3348335884184006 0.06363838236202049 0  -0.421356328333676 0.003541006712621568 0  -0.4120119114964419 -0.06356736075056821 0  -0.3471413390599406 -0.06535290311494767 0  -0.2845778682310051 0.02495476001244536 0  -0.4036347569859151 -0.02957578179079991 0  -0.4008038297516275 0.02912394953576058 0  -0.4684464750612591 0.03012383645431143 0  -0.4680517012023024 -0.03010903590294818 0  -0.3590097397730768 -0.02683727700402486 0  -0.433770700672056 0.07049211514509394 0  -0.3183899248882524 -0.07132030615315052 0  -0.2786322459778085 -0.03158677644556719 0  -0.3486837543859873 0.02771664936262214 0  -0.3821065399865956 0.07272535841062555 0  -0.4376032469332309 -0.07379314933767983 0  -0.3196320204582093 0.002595122969680506 0  -0.3880668591275516 -0.07396612294530693 0  -0.3742378196480034 0.02350060963641981 0  -0.3047151843601849 -0.03117523435393533 0  -0.3121330384030688 0.07485353556697853 0  -0.2752826937641819 -0.07336098674719331 0  -0.3571666671737028 0.07538621545144265 0  -0.2742213809778471 0.07514005730299225 0  -0.2747898059150209 0.00492397814091739 0  -0.437923130018529 -0.01418843422685659 0  -0.3134057994256593 0.04985811985167827 0  -0.2727715686081871 0.0454393012412595 0  -0.3816362970490225 -0.02274608622601491 0  -0.3648615044101529 -0.07875302035426339 0  -0.4408610826074181 0.01462565879120544 0  -0.4773683522588593 0.01085151015484962 0  -0.2982306820441021 -0.07828377112297646 0  -0.2722508120310425 -0.05134182107518803 0  -0.4781799624717576 0.07811710671504565 0  -0.4782710545244382 -0.07824050944143322 0  -0.4779740084229234 -0.0112266819954318 0  -0.3022133220633222 0.01962797382460943 0  -0.3162722290862882 -0.04972488152854707 0  -0.3909157978710001 0.04714581587945635 0  -0.4783356259668664 0.04772111364468869 0  -0.4787470645745416 -0.04866862524229203 0  -0.4180150985993636 0.03927071917149167 0  -0.4152578092014954 0.0804870785508901 0  -0.3489659630856133 -0.0456212538077103 0  -0.33112725123118 -0.0152079172306502 0  -0.3635240430342228 -0.00532618303806893
[...]
<PointData  Scalars="f_791-0"> 
<DataArray  type="Float64"  Name="f_791-0"  format="ascii">2.4690342816389568e+00  2.2054178162561362e+00  2.2344922297615777e+00  2.4690342816389568e+00  2.4690342816389568e+00  2.2344922297615777e+00  2.2054178162561362e+00  2.4690342816389568e+00  2.4677007289488029e+00  2.4654239024046745e+00  2.4622213228837118e+00  2.4580798586401378e+00  2.4530085787553770e+00  2.4470464594171952e+00  2.4401923835422505e+00  2.4324795786756552e+00  2.4239383981782576e+00  2.4145794367241389e+00  2.4044697151576711e+00  2.3936090190155359e+00  2.3820505600837638e+00  2.3698392569508706e+00  2.3570090249216009e+00  2.3436108684045815e+00  2.3296808888945457e+00  2.3152770918432033e+00  2.3004343059251333e+00  2.2852252999882943e+00  2.2696931759714953e+00  2.2538938456138227e+00  2.2378747552020277e+00  2.2216980683172216e+00  2.1888416914532240e+00  2.1724399651548856e+00  2.1562585266309968e+00  2.1403804773791451e+00  2.1248502465537062e+00  2.1097314561027400e+00  2.0950787853985320e+00  2.0809265040308014e+00  2.0673382997672562e+00  2.0543607173410896e+00  2.0420706993345594e+00  2.0304832552995351e+00  2.0196411668019030e+00  2.0095773827355368e+00  2.0003309056448484e+00  1.9919623887315347e+00  1.9844986520449883e+00  1.9779337857643022e+00  1.9723068463018401e+00  1.9676641892559446e+00  1.9639710473007108e+00  1.9612914289306702e+00  1.9596232784551504e+00  1.9589558560486868e+00  1.9593065992049701e+00  1.9606533599893003e+00  1.9630275732689593e+00  1.9663712399794520e+00  1.9707041672707828e+00  1.9760144013025023e+00  1.9822843370343883e+00  1.9894924061821597e+00  1.9975827069146741e+00  2.0065482934695495e+00  2.0163614742273337e+00  2.0269819040017976e+00  2.0383740437014350e+00  2.0504870985474075e+00  2.0632825256541287e+00  2.0767168341180593e+00  2.0907350985763986e+00  2.1052967976874828e+00  2.1203418619186940e+00  2.1358118200767757e+00  2.1516628873097892e+00  2.1678335648119496e+00  2.1842574323775432e+00  2.2008916098283819e+00  2.2176447896705120e+00  2.2504457834180260e+00  2.2662090173670597e+00  2.2817315660984869e+00  2.2969469114038006e+00  2.3118060668637952e+00  2.3262596860089504e+00  2.3402530391155620e+00  2.3537474324310512e+00  2.3666883850641960e+00  2.3790240441677470e+00  2.3907198217301686e+00  2.4017309691444217e+00  2.4120345952950366e+00  2.4215792928996227e+00  2.4303102147968736e+00  2.4382321264186269e+00  2.4453098877209154e+00  2.4515164490701218e+00  2.4568086479649396e+00  2.4612003606070965e+00  2.4646547096227658e+00  2.4671784770073217e+00  2.4687390606247073e+00  2.4693475616176772e+00  2.4689765191590447e+00  2.4689836127497022e+00  2.4690342868601460e+00  2.4690006394478803e+00  2.4689860485507165e+00  2.4690220656016737e+00  2.4689946904939744e+00  2.4690213294141374e+00  2.4689837857773016e+00  2.4690158293316862e+00  2.4689857712810657e+00  2.4689954836976353e+00  2.4689985881102343e+00  2.4690386371718915e+00  2.4690077728984474e+00  2.4690331544156825e+00  2.4689959982107359e+00  2.4689923403780210e+00  2.4689838325534357e+00  2.4693475616176772e+00  2.4687390606247073e+00  2.4671784770073217e+00  2.4646547096227658e+00  2.4612003606070965e+00  2.4568086479649396e+00  2.4515164490701218e+00  2.4453098877209154e+00  2.4382321264186269e+00  2.4303102147968736e+00  2.4215792928996227e+00  2.4120345952950366e+00  2.4017309691444217e+00  2.3907198217301686e+00  2.3790240441677470e+00  2.3666883850641960e+00  2.3537474324310512e+00  2.3402530391155620e+00  2.3262596860089504e+00  2.3118060668637952e+00  2.2969469114038006e+00  2.2817315660984869e+00  2.2662090173670597e+00  2.2504457834180260e+00  2.2176447896705120e+00  2.2008916098283819e+00  2.1842574323775432e+00  2.1678335648119496e+00  2.1516628873097892e+00  2.1358118200767757e+00  2.1203418619186940e+00  2.1052967976874828e+00  2.0907350985763986e+00  2.0767168341180593e+00  2.0632825256541287e+00  2.0504870985474075e+00  2.0383740437014350e+00  2.0269819040017976e+00  2.0163614742273337e+00  2.0065482934695495e+00  1.9975827069146741e+00  1.9894924061821597e+00  1.9822843370343883e+00  1.9760144013025023e+00  1.9707041672707828e+00  1.9663712399794520e+00  1.9630275732689593e+00  1.9606533599893003e+00  1.9593065992049701e+00  1.9589558560486868e+00  1.9596232784551504e+00  1.9612914289306702e+00  1.9639710473007108e+00  1.9676641892559446e+00  1.9723068463018401e+00  1.9779337857643022e+00  1.9844986520449883e+00  1.9919623887315347e+00  2.0003309056448484e+00  2.0095773827355368e+00  2.0196411668019030e+00  2.0304832552995351e+00  2.0420706993345594e+00  2.0543607173410896e+00  2.0673382997672562e+00  2.0809265040308014e+00  2.0950787853985320e+00  2.1097314561027400e+00  2.1248502465537062e+00  2.1403804773791451e+00  2.1562585266309968e+00  2.1724399651548856e+00  2.1888416914532240e+00  2.2216980683172216e+00  2.2378747552020277e+00  2.2538938456138227e+00  2.2696931759714953e+00  2.2852252999882943e+00  2.3004343059251333e+00  2.3152770918432033e+00  2.3296808888945457e+00  2.3436108684045815e+00  2.3570090249216009e+00  2.3698392569508706e+00  2.3820505600837638e+00  2.3936090190155359e+00  2.4044697151576711e+00  2.4145794367241389e+00  2.4239383981782576e+00  2.4324795786756552e+00  2.4401923835422505e+00  2.4470464594171952e+00  2.4530085787553770e+00  2.4580798586401378e+00  2.4622213228837118e+00  2.4654239024046745e+00  2.4677007289488029e+00  2.4689838325534357e+00  2.4689923403780210e+00  2.4689959982107359e+00  2.4690331544156825e+00  2.4690077728984474e+00  2.4690386371718915e+00  2.4689985881102343e+00  2.4689954836976353e+00  2.4689857712810657e+00  2.4690158293316862e+00  2.4689837857773016e+00  2.4690213294141374e+00  2.4689946904939744e+00  2.4690220656016737e+00  2.4689860485507165e+00  2.4690006394478803e+00  2.4690342868601460e+00  2.4689836127497022e+00  2.4689765191590447e+00  2.2054183927901025e+00  2.2054194220748498e+00  2.2054182568999376e+00  2.2054174591802260e+00  2.2054192834711914e+00  2.2054183654859800e+00  2.2054209940646246e+00  2.2054208241827324e+00  2.2054189418828241e+00  2.2054198252836197e+00  2.2054197867544705e+00  2.2054130634670881e+00  2.2054193220163247e+00  2.2054170874106771e+00  2.2054135439535258e+00  2.2054155800186055e+00  2.2054144324164477e+00  2.2054211013412899e+00  2.2054175685061956e+00  2.2344896979472431e+00  2.2344874619975741e+00  2.2344931689251748e+00  2.2344909353708187e+00  2.2344933412572878e+00  2.2344892932679934e+00  2.2344872969841125e+00  2.2344884496148478e+00  2.2344920833792705e+00  2.2344881414814468e+00  2.2344884829688167e+00  2.2344935231634935e+00  2.2344878107182296e+00  2.2344897174297795e+00  2.2344921540558156e+00  2.2344918780522427e+00  2.2344932735176881e+00  2.2344867432195987e+00  2.2344901330804658e+00  2.3991340033562456e+00  2.3178148525423397e+00  2.3299611844337114e+00  2.4448652583422379e+00  2.4437608088088965e+00  2.3821153422933192e+00  2.3911854360714440e+00  2.2773590736691620e+00  2.2744618049667769e+00  2.4572910544340285e+00  2.2718706496178043e+00  2.4201507532084174e+00  2.3516757159671200e+00  2.4600884683079318e+00  2.4598652835173054e+00  2.3364522130537377e+00  2.4335935477940915e+00  2.4256925796869764e+00  2.3532442571874137e+00  2.2611535333335415e+00  2.4180671975074874e+00  2.4153696128374742e+00  2.4616550552146026e+00  2.4614988162664138e+00  2.3685729179225046e+00  2.4428822929166629e+00  2.3128979057075272e+00  2.2517086819318179e+00  2.3552542667530427e+00  2.3959488598479997e+00  2.4454687473104202e+00  2.3147277543462703e+00  2.4024105955910877e+00  2.3870170614971555e+00  2.2924368103717785e+00  2.3036352299799456e+00  2.2463528277756999e+00  2.3662533519324898e+00  2.2446614859976100e+00  2.2455680726677563e+00  2.4456864358712362e+00  2.3055317490565987e+00  2.2423341737595401e+00  2.3954308573037109e+00  2.3758599754981353e+00  2.4475726800757189e+00  2.4646490413746109e+00  2.2824935158199811e+00  2.2414971442198266e+00  2.4648835815608217e+00  2.4649149183097889e+00  2.4649004088586417e+00  2.2886289292358777e+00  2.3097813416040753e+00  2.4054328534812282e+00  2.4649808136999689e+00  2.4650400011018068e+00  2.4308680810070107e+00  2.4285379267106051e+00  2.3556379414429216e+00  2.3312934053597885e+00  2.3742254207600841e+00  2.4135145168249967e+00  2.4184982200098237e+00  2.4541854753459487e+00  2.3383546840930882e+00  2.4312528457544671e+00  2.4371196802411639e+00  2.2907998643000069e+00  2.4555242981294110e+00  2.4553331127814579e+00  2.3373091525328311e+00  2.4544234844125166e+00  2.2720327782634584e+00  2.3358786641631339e+00  2.2340027378600436e+00  2.4307899085979883e+00  2.4326793772961652e+00  2.3291958452077459e+00  2.3576983358923780e+00  2.3040453970452321e+00  2.4434383539579621e+00  2.4131727316871916e+00  2.3351833125908530e+00  2.4189539277237757e+00  2.3675015948895854e+00  2.4554134928078941e+00  2.3747703252002808e+00  2.4406171422475649e+00  2.2335695770981103e+00  2.4167880387501555e+00  2.4529852769480192e+00  2.2325554859303645e+00  2.4507808101948863e+00  2.4664324926810037e+00  2.4031496149476945e+00  2.2690945791318571e+00  2.4664368457580039e+00  2.4580076082220859e+00  2.2722644425730896e+00  2.3573016272397864e+00  2.3542768337960118e+00  2.3745889450687709e+00  2.3819818001329662e+00  2.4664466630071433e+00  2.4664524604832034e+00  2.3787541395840535e+00  2.2723118087847660e+00  2.3504561432262521e+00  2.4027018923386696e+00  2.3736686371693256e+00  2.3032674625199254e+00  2.4517095474569444e+00  2.2299224186559985e+00  2.4436111412527022e+00  2.2658742263455882e+00  2.2288055627114085e+00  2.4327330993861636e+00  2.3464889684393664e+00  2.4003326709759447e+00  2.2617139938403104e+00  2.2275285816309487e+00  2.4604584921193053e+00  2.4058819950213342e+00  2.3915916592888102e+00  2.3857601636495209e+00  2.4039035425716793e+00  2.2956050930601828e+00  2.4530473651764657e+00  2.4490859296120600e+00  2.2280185688782490e+00  2.2279810794295587e+00  2.4308525746791294e+00  2.2934444810174397e+00  2.4441557283901600e+00  2.3168143122092597e+00  2.3977532296155224e+00  2.3125983455998051e+00  2.2559555379194181e+00  2.3901931717354041e+00  2.4053861951163800e+00  2.2929909669188753e+00  2.3361183911287902e+00  2.2905753066061871e+00  2.4165941207943398e+00  2.4378742957819814e+00  2.3328751713681459e+00  2.3109867254347081e+00  2.2656281018228941e+00  2.4671277608059810e+00  2.3360676369133446e+00  2.4613330060534078e+00  2.3920259452453134e+00  2.2550067898831396e+00  2.4671203064899476e+00  2.3864485281515120e+00  2.4152401946966542e+00  2.2264028408565886e+00  2.2495388899685378e+00  2.4622340489848518e+00  2.2864408638099700e+00  2.3598958615518058e+00  2.3209641759261741e+00  2.3546342951708077e+00  2.3159842067047918e+00  2.4669639955293472e+00  2.4670164132669785e+00  2.4671829467932342e+00  2.4612386714509888e+00  2.4598401554154048e+00  2.2270661450783220e+00  2.3812564064917128e+00  2.2892455620010081e+00  2.4056253290512184e+00  2.3123168478087068e+00  2.3630927791372454e+00  2.3519301113868609e+00  2.3915683526283140e+00  2.4507206409036724e+00  2.3854770536314991e+00  2.4614255653526689e+00  2.2246822333992990e+00  2.3260258777338532e+00  2.2249035876422742e+00  2.4438788227978070e+00  2.4394134681864368e+00  2.4607405212451035e+00  2.4249567054066623e+00  2.2512804553193173e+00  2.4443764444296217e+00  2.4413749185998799e+00  2.2594656858101425e+00  2.4227620440477522e+00  2.2985408407947494e+00  2.4188705571872213e+00  2.4676678248219597e+00  2.4488516551553206e+00  2.4365938563821770e+00  2.4212980889877205e+00  2.3165879436841901e+00  2.2502525788065300e+00  2.4611611808074798e+00  2.2435375524213446e+00  2.4106778998691487e+00  2.2273698733175871e+00  2.2753806947138449e+00  2.3415521869409304e+00  2.4364915832897704e+00  2.3595920213921939e+00  2.4499957232911069e+00  2.2573620098070277e+00  2.3671771751202151e+00  2.4544560490678791e+00  2.3760194990167136e+00  2.4243177285802999e+00  2.4680658153771908e+00  2.4680683936480707e+00  2.2787627092584577e+00  2.2865887172171111e+00  2.4677106786654615e+00  2.4061955110758495e+00  2.3160553849657570e+00  2.4373363572624598e+00  2.4275964879025205e+00  2.4636525402398854e+00  2.4636308711269459e+00  2.4282200255321666e+00  2.4238058078297882e+00  2.3672915717935394e+00  2.3025462967998269e+00  2.4497133467887093e+00  2.4327161192657152e+00  2.4675849665413963e+00  2.4677757311314621e+00  2.2228739238904605e+00  2.2768276703019832e+00  2.4544125997044093e+00  2.4643687670738998e+00  2.4257330386698794e+00  2.4236073383744356e+00  2.3440525087836619e+00  2.4638104143519794e+00  2.2450839774510540e+00  2.3180323539080621e+00  2.2580191219683039e+00  2.4644825262133665e+00  2.4151585440283867e+00  2.2216339892472985e+00  2.3699774759229366e+00  2.3386311813169391e+00  2.3363585173477248e+00  2.4242463962608656e+00  2.2973771159803040e+00  2.4518294369280045e+00  2.2613028472107373e+00  2.4535492407091484e+00  2.4372098265396969e+00  2.2448681485663688e+00  2.4500521413446079e+00  2.3681595882589916e+00  2.4268513863844485e+00  2.4109774152034054e+00  2.4064358032294222e+00  2.3363767889557829e+00  2.3663966346993730e+00  2.4647234183960856e+00  2.4367412835533111e+00  2.4214391836677778e+00  2.3461694998806011e+00  2.4386238647155181e+00  2.3495511559050253e+00  2.4585344696724505e+00  2.4602244013339756e+00  2.4380859799201460e+00  2.2816662560812180e+00  2.4575408664010383e+00  2.4510052715126691e+00  2.3649280534344990e+00  2.3438997774158459e+00  2.4480965769651917e+00  2.4565524825624583e+00  2.2708351872409893e+00  2.3478773098970591e+00  2.2786923760511599e+00  2.4026876035967182e+00  2.4122495420063643e+00  2.4561265070472285e+00  2.2994221714524135e+00  2.3173727159854742e+00  2.4588385449107011e+00  2.4644522868173433e+00  2.4140807341221926e+00  2.3877737632988034e+00  2.3474907889435093e+00  2.3900009459338238e+00  2.3766259613735192e+00  2.3225369419127713e+00  2.3610487460330796e+00  2.3043446096454434e+00  2.3153409439617909e+00  2.2201401906938814e+00  2.3806256982257881e+00  2.3233657436087625e+00  2.2184953299746115e+00  2.3931091085923200e+00  2.3233856161824531e+00  2.3234976256603126e+00  2.4448359357905409e+00  2.4637347626397217e+00  2.4639951218056191e+00  2.4569491199500062e+00  2.4129145184931047e+00  2.4079477861386822e+00  2.4442023894435909e+00  2.3684712254530140e+00  2.4574359177374112e+00  2.2890640778533462e+00  2.4392742246314780e+00  2.3437889144037265e+00  2.4618940589392557e+00  2.4389284557019457e+00  2.3454888325547678e+00  2.2788392687377246e+00  2.2411231331294399e+00  2.2584805605964648e+00  2.2693609702276079e+00  2.4449847675852232e+00  2.4120730627912721e+00  2.2932880355247325e+00  2.2429237757762643e+00  2.2187873431032901e+00  2.2192467219553644e+00  2.3889330726886935e+00  2.4571591792461622e+00  2.4575096733592385e+00  2.4208045815279036e+00  2.2422813690217862e+00  2.4644561539114638e+00  2.3920132064942425e+00  2.4490200376972342e+00  2.3810168528815416e+00  2.3795699135694224e+00  2.3746918397379120e+00  2.4529187423222738e+00  2.3000809459899738e+00  2.2662241359571231e+00  2.4492569056710023e+00  2.4475956235090113e+00  2.2830692527709795e+00  2.2980098553077668e+00  2.2909085808624492e+00  2.3646343783081383e+00  2.3407587418556077e+00  2.3337037699075540e+00  2.3488411391919786e+00  2.4057443244298806e+00  2.2193153541973110e+00  2.4281959935594992e+00  2.3765250851640314e+00  2.3536277868617685e+00  2.4285487071653957e+00  2.3236813260004920e+00  2.2468842259694175e+00  2.4188838710297640e+00  2.4129681460074996e+00  2.3745412485471289e+00  2.4332061826764577e+00  2.3661239773784724e+00  2.4545439885119396e+00  2.3286144815284660e+00  2.3271228862599296e+00  2.4679764077169124e+00  2.3574282530019648e+00  2.4680338479985178e+00  2.3846080700256462e+00  2.4678831088408075e+00  2.4324284125445295e+00  2.4503153985890092e+00  2.2684311607772281e+00  2.2855924558603222e+00  2.4091029431559710e+00  2.4104313154945123e+00  2.4680222380817520e+00  2.2179089105092147e+00  2.2420007787626290e+00  2.3773403808126505e+00  2.3892357454678752e+00  2.2167303986945588e+00  2.2604388943708305e+00  2.3093961519287265e+00  2.3979159268151444e+00  2.4014508446054199e+00  2.4680892167782456e+00  2.4680742322097644e+00  2.2586929974861722e+00  2.3586486096701846e+00  2.3866973588946472e+00  2.2767344411942361e+00  2.3857441128245069e+00  2.4679936080804232e+00  2.4490656265803752e+00  2.3967842568716318e+00  2.3915108209963933e+00  2.4619512833487573e+00  2.2356385751946926e+00  2.2383166572923408e+00  2.2190323566240147e+00  2.4584549052442157e+00  2.3661436049361333e+00  2.4389146554769385e+00  2.4680837771262598e+00  2.3450829913234457e+00  2.3050842780488292e+00  2.4626179222602764e+00  2.4564930824257845e+00  2.3246170110826743e+00  2.4073709662602329e+00  2.3514576916835925e+00  2.4644832902036344e+00  2.4679817703173010e+00  2.3706242105354609e+00  2.2543362889333052e+00  2.2652445189279642e+00  2.4484063757488008e+00  2.2185187734954956e+00  2.4009790803615565e+00  2.3828678711706908e+00  2.3054509219490198e+00  2.4650785801689383e+00  2.4645840276460365e+00  2.4033609169992993e+00  2.2861108861664614e+00  2.2775400550238922e+00  2.3996083614536263e+00  2.2639447879041086e+00  2.4348454303545437e+00  2.3118471139115755e+00  2.4627734235210617e+00  2.3959582819929173e+00  2.2735931376436587e+00  2.2775531716584707e+00  2.3412566557330843e+00  2.4660133118067940e+00  2.2869755396205127e+00  2.4097525915466798e+00  2.2176013325918436e+00  2.3633808153171723e+00  2.2316128742457182e+00  2.4436746955594679e+00  2.2910555578486771e+00  2.2357656472317213e+00  2.3875541588919491e+00  2.4680958846011412e+00  2.3582668192889464e+00  2.3945812898174137e+00  2.4580900686658125e+00  2.2497088157892735e+00  2.2659055101813599e+00  2.3041166595951590e+00  2.4364527154441853e+00  2.3738706380815700e+00  2.4659084246949150e+00  2.4654928652957233e+00  2.3026156751902671e+00  2.2183508599711113e+00  2.4603711963142842e+00  2.3996556160628741e+00  2.3027246883615948e+00  2.2617400315454845e+00  2.3987853227905656e+00  2.3833877728258104e+00  2.4301192178318032e+00  2.2156959126523184e+00  2.3428164118205879e+00  2.4665372452518071e+00  2.4216911065591940e+00  2.2393217542820745e+00  2.3958864443372931e+00  2.3920777336511669e+00  2.2180810203099330e+00  2.3151730384630165e+00  2.3407547240687920e+00  2.2367749942844890e+00  2.2379022351863451e+00  2.4555576096195941e+00  2.2160736868839876e+00  2.2309693552577228e+00  2.4521966409698717e+00  2.2837456458589465e+00  2.4608152810913557e+00  2.3983001806701281e+00  2.4121818842549096e+00  2.2400082706109994e+00  2.4032582611166386e+00  2.3097987993010167e+00  2.2951455684650659e+00  2.3709196514479651e+00  2.4266589566450900e+00  2.4563141431448856e+00  2.3991200254650633e+00  2.3782125058799841e+00  2.4680753390515506e+00  2.4680793270903005e+00  2.3458735764021879e+00  2.2933102478999023e+00  2.4430417725893854e+00  2.2294624937182372e+00  2.4665627458460762e+00  2.3061253496762961e+00  2.3636619856104861e+00  2.2156303545019043e+00  2.4625943608808081e+00  2.2977962594230545e+00  2.2669815754266569e+00  2.3991364333162557e+00  2.4681304541871869e+00  2.4681262083782172e+00  2.4583891999132823e+00  2.4335829940921041e+00  2.4272555728386145e+00  2.3517408911177355e+00  2.4484914710104104e+00  2.3057789563150517e+00  2.4437693210861768e+00  2.4665643157448285e+00  2.2343806367651804e+00  2.4537016521204125e+00  2.4504869644130589e+00  2.3261266430487222e+00  2.2321937863245531e+00  2.4507828926737680e+00  2.4252954429285389e+00  2.3834162110500836e+00  2.4382127103444913e+00  2.3552536215639175e+00  2.4073230472036418e+00  2.4590726360358706e+00  2.2967399320383550e+00  2.3863313255988823e+00  2.4666627520262363e+00  2.4666598892180018e+00  2.3063156339844504e+00  2.2574988577098987e+00  2.3283907772249055e+00  2.3214461188089994e+00  2.3713097875614695e+00  2.3296589725562509e+00  2.4091542836804409e+00  2.3825364939653975e+00  2.4081188655136652e+00  2.4462731365258601e+00  2.43925879479